  215  215  500    2
  0.5669542E+01  0.1068224E-08  0.1068223E-08  0.1068223E-08  0.5000000E-15
  1.000000000000000E-004
  CAR 
 unknown system                          
    862      1    648
 
  0.0000000E+00  0.0000000E+00  0.0000000E+00  0.1000000E+01
    1      -11.869744    -11.860591   1.000000   1.000000
    2      -11.207534    -11.166066   1.000000   1.000000
    3      -10.831564    -10.828988   1.000000   1.000000
    4      -10.837037    -10.833873   1.000000   1.000000
    5      -10.785252    -10.777935   1.000000   1.000000
    6      -10.765674    -10.762777   1.000000   1.000000
    7      -10.704344    -10.692815   1.000000   1.000000
    8      -10.331421    -10.289818   1.000000   1.000000
    9       -9.831967     -9.829329   1.000000   1.000000
   10       -9.840738     -9.837255   1.000000   1.000000
   11       -9.818911     -9.815710   1.000000   1.000000
   12       -9.812597     -9.810547   1.000000   1.000000
   13       -9.794365     -9.791133   1.000000   1.000000
   14       -9.749978     -9.749828   1.000000   1.000000
   15       -9.775076     -9.766674   1.000000   1.000000
   16       -9.770328     -9.765808   1.000000   1.000000
   17       -9.716911     -9.701520   1.000000   1.000000
   18       -9.691402     -9.679723   1.000000   1.000000
   19       -9.540059     -9.519650   1.000000   1.000000
   20       -9.115166     -9.091014   1.000000   1.000000
   21       -8.790679     -8.786325   1.000000   1.000000
   22       -8.792871     -8.787821   1.000000   1.000000
   23       -8.785904     -8.778824   1.000000   1.000000
   24       -8.748760     -8.741491   1.000000   1.000000
   25       -8.762809     -8.747144   1.000000   1.000000
   26       -8.736274     -8.726905   1.000000   1.000000
   27       -8.586208     -8.565052   1.000000   1.000000
   28       -8.049218     -8.017914   1.000000   1.000000
   29       -7.797282     -7.791188   1.000000   1.000000
   30       -7.796328     -7.790391   1.000000   1.000000
   31       -7.773584     -7.763182   1.000000   1.000000
   32       -7.764516     -7.760376   1.000000   1.000000
   33       -7.715059     -7.707540   1.000000   1.000000
   34       -7.474114     -7.439419   1.000000   1.000000
   35       -6.931914     -6.919202   1.000000   1.000000
   36       -6.935874     -6.925812   1.000000   1.000000
   37       -6.895425     -6.890518   1.000000   1.000000
   38       -6.903414     -6.897597   1.000000   1.000000
   39       -6.891636     -6.901320   1.000000   1.000000
   40       -6.866465     -6.864044   1.000000   1.000000
   41       -6.886026     -6.881955   1.000000   1.000000
   42       -6.869467     -6.867484   1.000000   1.000000
   43       -6.872255     -6.869677   1.000000   1.000000
   44       -6.869079     -6.869151   1.000000   1.000000
   45       -6.865832     -6.861663   1.000000   1.000000
   46       -6.845660     -6.845097   1.000000   1.000000
   47       -6.840539     -6.834469   1.000000   1.000000
   48       -6.834240     -6.831437   1.000000   1.000000
   49       -6.785453     -6.779940   1.000000   1.000000
   50       -6.814581     -6.804367   1.000000   1.000000
   51       -6.793526     -6.784390   1.000000   1.000000
   52       -6.778844     -6.783152   1.000000   1.000000
   53       -6.800612     -6.776314   1.000000   1.000000
   54       -6.785314     -6.780315   1.000000   1.000000
   55       -6.715695     -6.691839   1.000000   1.000000
   56       -6.686453     -6.672699   1.000000   1.000000
   57       -6.543322     -6.531831   1.000000   1.000000
   58       -6.374765     -6.362203   1.000000   1.000000
   59       -6.155154     -6.150173   1.000000   1.000000
   60       -6.148467     -6.142736   1.000000   1.000000
   61       -6.085870     -6.087801   1.000000   1.000000
   62       -6.090572     -6.081281   1.000000   1.000000
   63       -6.090966     -6.086425   1.000000   1.000000
   64       -6.074291     -6.072956   1.000000   1.000000
   65       -6.072827     -6.065914   1.000000   1.000000
   66       -6.071308     -6.068040   1.000000   1.000000
   67       -6.078483     -6.071378   1.000000   1.000000
   68       -6.049763     -6.044938   1.000000   1.000000
   69       -6.040403     -6.039098   1.000000   1.000000
   70       -6.019479     -6.020701   1.000000   1.000000
   71       -6.028384     -6.027945   1.000000   1.000000
   72       -6.034333     -6.008612   1.000000   1.000000
   73       -5.998566     -5.993656   1.000000   1.000000
   74       -6.000850     -5.994780   1.000000   1.000000
   75       -5.963480     -5.953380   1.000000   1.000000
   76       -5.961178     -5.953658   1.000000   1.000000
   77       -5.950136     -5.935002   1.000000   1.000000
   78       -5.896827     -5.886262   1.000000   1.000000
   79       -5.702563     -5.664807   1.000000   1.000000
   80       -5.836273     -5.771216   1.000000   1.000000
   81       -5.142293     -5.089828   1.000000   1.000000
   82       -4.587721     -4.570791   1.000000   1.000000
   83       -4.416339     -4.410838   1.000000   1.000000
   84       -4.414134     -4.407193   1.000000   1.000000
   85       -4.357898     -4.349243   1.000000   1.000000
   86       -4.353226     -4.340908   1.000000   1.000000
   87       -4.346930     -4.341701   1.000000   1.000000
   88       -4.333960     -4.333003   1.000000   1.000000
   89       -4.341177     -4.332524   1.000000   1.000000
   90       -4.336339     -4.331442   1.000000   1.000000
   91       -4.274020     -4.239640   1.000000   1.000000
   92       -4.277992     -4.259491   1.000000   1.000000
   93       -3.932752     -3.881594   1.000000   1.000000
   94       -3.161892     -3.143954   1.000000   1.000000
   95       -3.101549     -3.095965   1.000000   1.000000
   96       -3.104437     -3.100149   1.000000   1.000000
   97       -3.072351     -3.065654   1.000000   1.000000
   98       -3.073511     -3.067735   1.000000   1.000000
   99       -3.030875     -3.024781   1.000000   1.000000
  100       -2.852207     -2.823071   1.000000   1.000000
  101       -2.705647     -2.690142   1.000000   1.000000
  102       -2.704135     -2.698707   1.000000   1.000000
  103       -2.589530     -2.589098   1.000000   1.000000
  104       -2.591134     -2.587887   1.000000   1.000000
  105       -2.602698     -2.600191   1.000000   1.000000
  106       -2.572486     -2.570905   1.000000   1.000000
  107       -2.596848     -2.594393   1.000000   1.000000
  108       -2.571238     -2.568000   1.000000   1.000000
  109       -2.557835     -2.555914   1.000000   1.000000
  110       -2.584959     -2.577580   1.000000   1.000000
  111       -2.565818     -2.559997   1.000000   1.000000
  112       -2.515918     -2.514112   1.000000   1.000000
  113       -2.535013     -2.533890   1.000000   1.000000
  114       -2.503421     -2.496746   1.000000   1.000000
  115       -2.491829     -2.482753   1.000000   1.000000
  116       -2.451604     -2.441963   1.000000   1.000000
  117       -2.457043     -2.451413   1.000000   1.000000
  118       -2.429010     -2.424319   1.000000   1.000000
  119       -2.414999     -2.404656   1.000000   1.000000
  120       -2.462724     -2.449157   1.000000   1.000000
  121       -2.404273     -2.401435   1.000000   1.000000
  122       -2.419565     -2.414790   1.000000   1.000000
  123       -2.425460     -2.421119   1.000000   1.000000
  124       -2.393404     -2.388918   1.000000   1.000000
  125       -2.398497     -2.393550   1.000000   1.000000
  126       -2.384181     -2.374767   1.000000   1.000000
  127       -2.376714     -2.376884   1.000000   1.000000
  128       -2.373598     -2.367366   1.000000   1.000000
  129       -2.363356     -2.355573   1.000000   1.000000
  130       -2.369770     -2.368224   1.000000   1.000000
  131       -2.356089     -2.348715   1.000000   1.000000
  132       -2.350754     -2.342838   1.000000   1.000000
  133       -2.375646     -2.360229   1.000000   1.000000
  134       -2.331959     -2.327021   1.000000   1.000000
  135       -2.325523     -2.322589   1.000000   1.000000
  136       -2.308927     -2.286721   1.000000   1.000000
  137       -2.298531     -2.312529   1.000000   1.000000
  138       -2.293123     -2.286345   1.000000   1.000000
  139       -2.272744     -2.277872   1.000000   1.000000
  140       -2.306310     -2.295241   1.000000   1.000000
  141       -2.287317     -2.260986   1.000000   1.000000
  142       -2.285933     -2.261292   1.000000   1.000000
  143       -2.257021     -2.228884   1.000000   1.000000
  144       -2.065972     -2.043666   1.000000   1.000000
  145       -1.943150     -1.891282   1.000000   1.000000
  146       -1.896741     -1.867645   1.000000   1.000000
  147       -1.538471     -1.518604   1.000000   1.000000
  148       -1.290971     -1.287080   1.000000   1.000000
  149       -1.294590     -1.286732   1.000000   1.000000
  150       -1.296026     -1.268676   1.000000   1.000000
  151       -1.230566     -1.226611   1.000000   1.000000
  152       -1.236134     -1.231106   1.000000   1.000000
  153       -1.238563     -1.234935   1.000000   1.000000
  154       -1.228903     -1.221024   1.000000   1.000000
  155       -1.196915     -1.190767   1.000000   1.000000
  156       -1.199600     -1.193011   1.000000   1.000000
  157       -1.083761     -1.022289   1.000000   1.000000
  158       -1.007772     -0.967328   1.000000   1.000000
  159       -0.115452     -0.051759   1.000000   1.000000
  160        0.165170      0.175860   1.000000   1.000000
  161        0.151684      0.165542   1.000000   1.000000
  162        0.223400      0.235295   1.000000   1.000000
  163        0.287670      0.290151   1.000000   1.000000
  164        0.293083      0.295506   1.000000   1.000000
  165        0.294216      0.299250   1.000000   1.000000
  166        0.292572      0.294656   1.000000   1.000000
  167        0.294944      0.297756   1.000000   1.000000
  168        0.299844      0.310799   1.000000   1.000000
  169        0.308083      0.304951   1.000000   1.000000
  170        0.307237      0.321150   1.000000   1.000000
  171        0.331900      0.336747   1.000000   1.000000
  172        0.335021      0.340276   1.000000   1.000000
  173        0.341289      0.348353   1.000000   1.000000
  174        0.349655      0.358112   1.000000   1.000000
  175        0.364074      0.371834   1.000000   1.000000
  176        0.460993      0.472742   1.000000   1.000000
  177        0.466863      0.482259   1.000000   1.000000
  178        0.477513      0.491110   1.000000   1.000000
  179        0.526202      0.545722   1.000000   1.000000
  180        0.836060      0.847901   1.000000   1.000000
  181        0.836868      0.850759   1.000000   1.000000
  182        0.890945      0.918387   1.000000   1.000000
  183        0.978616      0.982440   1.000000   1.000000
  184        0.987840      0.987988   1.000000   1.000000
  185        0.993139      0.994595   1.000000   1.000000
  186        0.982059      0.984829   1.000000   1.000000
  187        1.004423      1.003878   1.000000   1.000000
  188        0.988537      0.998288   1.000000   1.000000
  189        1.002492      1.007850   1.000000   1.000000
  190        0.999508      1.008486   1.000000   1.000000
  191        1.019099      1.021497   1.000000   1.000000
  192        1.023037      1.028991   1.000000   1.000000
  193        1.036202      1.039707   1.000000   1.000000
  194        1.029508      1.035036   1.000000   1.000000
  195        1.041447      1.050907   1.000000   1.000000
  196        1.027990      1.048483   1.000000   1.000000
  197        1.041646      1.052977   1.000000   1.000000
  198        1.061030      1.070744   1.000000   1.000000
  199        1.077772      1.088064   1.000000   1.000000
  200        1.073819      1.081269   1.000000   1.000000
  201        1.243673      1.305053   1.000000   1.000000
  202        1.333720      1.368317   1.000000   1.000000
  203        1.675913      1.688712   1.000000   1.000000
  204        1.690603      1.704160   1.000000   1.000000
  205        1.751530      1.764458   1.000000   1.000000
  206        1.817176      1.817227   1.000000   1.000000
  207        1.815554      1.807539   1.000000   1.000000
  208        1.805014      1.822429   1.000000   1.000000
  209        1.824517      1.826005   1.000000   1.000000
  210        1.826960      1.829338   1.000000   1.000000
  211        1.809628      1.814128   1.000000   1.000000
  212        1.849186      1.852702   1.000000   1.000000
  213        1.841156      1.844024   1.000000   1.000000
  214        1.825637      1.827575   1.000000   1.000000
  215        1.856349      1.861237   1.000000   1.000000
  216        1.874468      1.878114   1.000000   1.000000
  217        1.928540      1.934845   1.000000   1.000000
  218        1.906021      1.911951   1.000000   1.000000
  219        1.926360      1.931151   1.000000   1.000000
  220        1.945285      1.954959   1.000000   1.000000
  221        1.955715      1.963992   1.000000   1.000000
  222        1.976749      1.984560   1.000000   1.000000
  223        1.991949      2.007584   1.000000   1.000000
  224        2.017474      2.028273   1.000000   1.000000
  225        2.048489      2.054639   1.000000   1.000000
  226        2.049519      2.060166   1.000000   1.000000
  227        2.131149      2.163876   1.000000   1.000000
  228        2.223087      2.232872   1.000000   1.000000
  229        2.216988      2.229053   1.000000   1.000000
  230        2.342256      2.351645   1.000000   1.000000
  231        2.347947      2.352140   1.000000   1.000000
  232        2.348699      2.354794   1.000000   1.000000
  233        2.368378      2.371636   1.000000   1.000000
  234        2.385499      2.387642   1.000000   1.000000
  235        2.372129      2.376034   1.000000   1.000000
  236        2.384028      2.389247   1.000000   1.000000
  237        2.385008      2.390228   1.000000   1.000000
  238        2.388841      2.395701   1.000000   1.000000
  239        2.386319      2.396648   1.000000   1.000000
  240        2.405873      2.413639   1.000000   1.000000
  241        2.389999      2.398555   1.000000   1.000000
  242        2.399442      2.402821   1.000000   1.000000
  243        2.430096      2.436901   1.000000   1.000000
  244        2.446186      2.443619   1.000000   1.000000
  245        2.434808      2.457713   1.000000   1.000000
  246        2.431176      2.446187   1.000000   1.000000
  247        2.475409      2.484667   1.000000   1.000000
  248        2.464271      2.474688   1.000000   1.000000
  249        2.494627      2.513297   1.000000   1.000000
  250        2.515664      2.529765   1.000000   1.000000
  251        2.510921      2.526006   1.000000   1.000000
  252        2.563130      2.572353   1.000000   1.000000
  253        2.563534      2.576742   1.000000   1.000000
  254        2.814184      2.850604   1.000000   1.000000
  255        2.884819      2.909586   1.000000   1.000000
  256        2.867923      2.913122   1.000000   1.000000
  257        3.353071      3.362532   1.000000   1.000000
  258        3.351553      3.363416   1.000000   1.000000
  259        3.432558      3.439847   1.000000   1.000000
  260        3.435937      3.453258   1.000000   1.000000
  261        3.468058      3.483995   1.000000   1.000000
  262        3.468036      3.480048   1.000000   1.000000
  263        3.596367      3.664920   1.000000   1.000000
  264        3.875633      3.890267   1.000000   1.000000
  265        3.858461      3.879936   1.000000   1.000000
  266        3.987518      3.999649   1.000000   1.000000
  267        3.995897      4.005619   1.000000   1.000000
  268        4.002855      4.000367   1.000000   1.000000
  269        4.018748      4.022285   1.000000   1.000000
  270        4.024592      4.031119   1.000000   1.000000
  271        4.026271      4.030945   1.000000   1.000000
  272        4.054525      4.073861   1.000000   1.000000
  273        4.094911      4.109886   1.000000   1.000000
  274        4.106824      4.116332   1.000000   1.000000
  275        4.197462      4.208721   1.000000   1.000000
  276        4.207271      4.219554   1.000000   1.000000
  277        4.345425      4.369133   1.000000   1.000000
  278        4.390065      4.403701   1.000000   1.000000
  279        4.405752      4.402393   1.000000   1.000000
  280        4.398703      4.394426   1.000000   1.000000
  281        4.396962      4.424072   1.000000   1.000000
  282        4.414068      4.423395   1.000000   1.000000
  283        4.414191      4.420221   1.000000   1.000000
  284        4.435677      4.442423   1.000000   1.000000
  285        4.455997      4.466847   1.000000   1.000000
  286        4.463201      4.470515   1.000000   1.000000
  287        4.474312      4.492521   1.000000   1.000000
  288        4.550069      4.564389   1.000000   1.000000
  289        4.581736      4.593917   1.000000   1.000000
  290        4.621410      4.626085   1.000000   1.000000
  291        4.645390      4.648595   1.000000   1.000000
  292        4.661091      4.663030   1.000000   1.000000
  293        4.654212      4.656908   1.000000   1.000000
  294        4.667310      4.669995   1.000000   1.000000
  295        4.675347      4.678010   1.000000   1.000000
  296        4.675394      4.679561   1.000000   1.000000
  297        4.678991      4.682273   1.000000   1.000000
  298        4.679741      4.682432   1.000000   1.000000
  299        4.704857      4.690812   1.000000   1.000000
  300        4.688661      4.710487   1.000000   1.000000
  301        4.695765      4.698091   1.000000   1.000000
  302        4.688604      4.690714   1.000000   1.000000
  303        4.733666      4.739400   1.000000   1.000000
  304        4.728661      4.729914   1.000000   1.000000
  305        4.739523      4.750596   1.000000   1.000000
  306        4.743954      4.742573   1.000000   1.000000
  307        4.732882      4.736650   1.000000   1.000000
  308        4.741295      4.757178   1.000000   1.000000
  309        4.744372      4.753467   1.000000   1.000000
  310        4.768536      4.776410   1.000000   1.000000
  311        4.801077      4.807459   1.000000   1.000000
  312        4.816331      4.821262   1.000000   1.000000
  313        4.828207      4.835328   1.000000   1.000000
  314        4.853241      4.856932   1.000000   1.000000
  315        4.855717      4.870743   1.000000   1.000000
  316        4.850493      4.852914   1.000000   1.000000
  317        4.852473      4.855007   1.000000   1.000000
  318        4.861736      4.862986   1.000000   1.000000
  319        4.864156      4.864042   1.000000   1.000000
  320        4.866852      4.866643   1.000000   1.000000
  321        4.863353      4.870676   1.000000   1.000000
  322        4.875829      4.878680   1.000000   1.000000
  323        4.888352      4.893453   1.000000   1.000000
  324        4.884281      4.889049   1.000000   1.000000
  325        4.892224      4.891258   1.000000   1.000000
  326        4.890535      4.890934   1.000000   1.000000
  327        4.900248      4.900283   1.000000   1.000000
  328        4.888902      4.902817   1.000000   1.000000
  329        4.903023      4.906074   1.000000   1.000000
  330        4.900241      4.909710   1.000000   1.000000
  331        4.898820      4.904317   1.000000   1.000000
  332        4.898117      4.899903   1.000000   1.000000
  333        4.917168      4.920736   1.000000   1.000000
  334        4.920391      4.928515   1.000000   1.000000
  335        4.928529      4.936367   1.000000   1.000000
  336        4.946762      4.954650   1.000000   1.000000
  337        4.931827      4.933725   1.000000   1.000000
  338        4.932372      4.951211   1.000000   1.000000
  339        4.936402      4.951792   1.000000   1.000000
  340        4.955033      4.973086   1.000000   1.000000
  341        4.976762      4.983096   1.000000   1.000000
  342        4.957738      4.970144   1.000000   1.000000
  343        4.959429      4.964423   1.000000   1.000000
  344        4.989732      4.994593   1.000000   1.000000
  345        4.983577      4.989740   1.000000   1.000000
  346        5.040594      5.044151   1.000000   1.000000
  347        5.029599      5.057149   1.000000   1.000000
  348        5.041946      5.070993   1.000000   1.000000
  349        5.066987      5.079394   1.000000   1.000000
  350        5.095255      5.102470   1.000000   1.000000
  351        5.111317      5.122461   1.000000   1.000000
  352        5.094326      5.127134   1.000000   1.000000
  353        5.096398      5.109287   1.000000   1.000000
  354        5.237726      5.262397   1.000000   1.000000
  355        5.212923      5.247314   1.000000   1.000000
  356        5.450410      5.470655   1.000000   1.000000
  357        5.459481      5.478552   1.000000   1.000000
  358        5.466037      5.476645   1.000000   1.000000
  359        5.615580      5.622446   1.000000   1.000000
  360        5.616458      5.623564   1.000000   1.000000
  361        5.687172      5.689713   1.000000   1.000000
  362        5.694334      5.698126   1.000000   1.000000
  363        5.695540      5.699357   1.000000   1.000000
  364        5.697490      5.699175   1.000000   1.000000
  365        5.739361      5.744855   1.000000   1.000000
  366        5.739286      5.743397   1.000000   1.000000
  367        5.734345      5.737839   1.000000   1.000000
  368        5.749489      5.763082   1.000000   1.000000
  369        5.772437      5.781926   1.000000   1.000000
  370        5.777552      5.780327   1.000000   1.000000
  371        5.797059      5.783033   1.000000   1.000000
  372        5.770350      5.806326   1.000000   1.000000
  373        5.774868      5.787544   1.000000   1.000000
  374        5.797516      5.813906   1.000000   1.000000
  375        5.793895      5.816593   1.000000   1.000000
  376        5.817660      5.824806   1.000000   1.000000
  377        5.920479      5.958924   1.000000   1.000000
  378        5.839531      5.875036   1.000000   1.000000
  379        5.947013      5.975038   1.000000   1.000000
  380        6.461397      6.537218   1.000000   1.000000
  381        6.730286      6.758371   1.000000   1.000000
  382        6.687550      6.757304   1.000000   1.000000
  383        7.039349      7.058991   1.000000   1.000000
  384        7.039721      7.065436   1.000000   1.000000
  385        7.051462      7.124062   1.000000   1.000000
  386        7.120234      7.125087   1.000000   1.000000
  387        7.122173      7.126951   1.000000   1.000000
  388        7.123081      7.150838   1.000000   1.000000
  389        7.154245      7.156751   1.000000   1.000000
  390        7.170768      7.180587   1.000000   1.000000
  391        7.165024      7.175982   1.000000   1.000000
  392        7.163870      7.202575   1.000000   1.000000
  393        7.222976      7.228745   1.000000   1.000000
  394        7.215757      7.219997   1.000000   1.000000
  395        7.246277      7.256538   1.000000   1.000000
  396        7.308925      7.313664   1.000000   1.000000
  397        7.320688      7.325226   1.000000   1.000000
  398        7.386112      7.397538   1.000000   1.000000
  399        7.403991      7.401450   1.000000   1.000000
  400        7.392704      7.404460   1.000000   1.000000
  401        7.405938      7.413435   1.000000   1.000000
  402        7.388478      7.395950   1.000000   1.000000
  403        7.407204      7.416664   1.000000   1.000000
  404        7.411858      7.426476   1.000000   1.000000
  405        7.412713      7.421183   1.000000   1.000000
  406        7.448894      7.462787   1.000000   1.000000
  407        7.450274      7.460542   1.000000   1.000000
  408        7.468607      7.505261   1.000000   1.000000
  409        7.465439      7.479388   1.000000   1.000000
  410        7.494274      7.513563   1.000000   1.000000
  411        7.489595      7.485851   1.000000   1.000000
  412        7.503769      7.511498   1.000000   1.000000
  413        7.518317      7.525162   1.000000   1.000000
  414        8.020168      8.063372   1.000000   1.000000
  415        8.091707      8.106187   1.000000   1.000000
  416        8.081857      8.112752   1.000000   1.000000
  417        8.315050      8.321438   1.000000   1.000000
  418        8.291920      8.303179   1.000000   1.000000
  419        8.313524      8.316228   1.000000   1.000000
  420        8.349451      8.351532   1.000000   1.000000
  421        8.351540      8.360589   1.000000   1.000000
  422        8.359546      8.366819   1.000000   1.000000
  423        8.392533      8.404600   1.000000   1.000000
  424        8.284372      8.437790   1.000000   1.000000
  425        8.419094      8.474948   1.000000   1.000000
  426        8.456711      8.537747   1.000000   1.000000
  427        9.457019      9.639039   1.000000   1.000000
  428        9.605575      9.614494   1.000000   1.000000
  429        9.585626      9.626970   1.000000   1.000000
  430       10.080720     10.987398   1.000000   0.000000
  431       12.459554     13.054382   1.000000   1.000000
  432       11.588265     12.898185   1.000000   0.000000
  433       13.875897     13.879654   0.000000   0.000000
  434       13.876833     13.881081   0.000000   0.000000
  435       13.877515     13.893419   0.000000   0.000000
  436       13.938939     13.949115   0.000000   0.000000
  437       13.935098     13.948175   0.000000   0.000000
  438       13.952063     13.961817   0.000000   0.000000
  439       14.407712     14.419935   0.000000   0.000000
  440       14.514429     14.522617   0.000000   0.000000
  441       14.519068     14.524062   0.000000   0.000000
  442       14.535244     14.541016   0.000000   0.000000
  443       14.536318     14.542612   0.000000   0.000000
  444       14.595248     14.604178   0.000000   0.000000
  445       14.665223     14.669874   0.000000   0.000000
  446       14.671612     14.677302   0.000000   0.000000
  447       14.712949     14.742089   0.000000   0.000000
  448       14.770204     14.789950   0.000000   0.000000
  449       14.769575     14.783620   0.000000   0.000000
  450       14.792116     14.802984   0.000000   0.000000
  451       15.400999     15.421663   0.000000   0.000000
  452       15.400411     15.417633   0.000000   0.000000
  453       15.414012     15.426675   0.000000   0.000000
  454       15.915434     15.936248   0.000000   0.000000
  455       16.057282     16.060539   0.000000   0.000000
  456       16.052824     16.055980   0.000000   0.000000
  457       16.077264     16.079700   0.000000   0.000000
  458       16.100671     16.109631   0.000000   0.000000
  459       16.107712     16.111877   0.000000   0.000000
  460       16.117074     16.123452   0.000000   0.000000
  461       16.118153     16.124828   0.000000   0.000000
  462       16.120986     16.126552   0.000000   0.000000
  463       16.140536     16.145860   0.000000   0.000000
  464       16.139906     16.143419   0.000000   0.000000
  465       16.175290     16.182833   0.000000   0.000000
  466       16.515649     16.537660   0.000000   0.000000
  467       16.758183     16.762003   0.000000   0.000000
  468       16.770872     16.773263   0.000000   0.000000
  469       16.808378     16.811014   0.000000   0.000000
  470       16.810074     16.813632   0.000000   0.000000
  471       16.813368     16.815799   0.000000   0.000000
  472       16.820279     16.823137   0.000000   0.000000
  473       16.824685     16.827129   0.000000   0.000000
  474       16.817466     16.823483   0.000000   0.000000
  475       16.827170     16.830821   0.000000   0.000000
  476       16.826200     16.834771   0.000000   0.000000
  477       16.851812     16.856615   0.000000   0.000000
  478       16.844095     16.849175   0.000000   0.000000
  479       16.837089     16.842818   0.000000   0.000000
  480       16.851052     16.855224   0.000000   0.000000
  481       16.871703     16.877357   0.000000   0.000000
  482       16.877986     16.887176   0.000000   0.000000
  483       16.880381     16.888389   0.000000   0.000000
  484       16.915730     16.921597   0.000000   0.000000
  485       16.927576     16.933126   0.000000   0.000000
  486       16.942780     16.951360   0.000000   0.000000
  487       16.963264     16.965895   0.000000   0.000000
  488       16.959479     16.971372   0.000000   0.000000
  489       16.963357     16.971798   0.000000   0.000000
  490       17.164889     17.184336   0.000000   0.000000
  491       17.230685     17.239383   0.000000   0.000000
  492       17.207771     17.219954   0.000000   0.000000
  493       17.305984     17.309107   0.000000   0.000000
  494       17.311519     17.311681   0.000000   0.000000
  495       17.321065     17.323815   0.000000   0.000000
  496       17.318136     17.321128   0.000000   0.000000
  497       17.346400     17.348470   0.000000   0.000000
  498       17.328111     17.331005   0.000000   0.000000
  499       17.330504     17.334884   0.000000   0.000000
  500       17.357785     17.359793   0.000000   0.000000
  501       17.356884     17.358847   0.000000   0.000000
  502       17.368402     17.372028   0.000000   0.000000
  503       17.386469     17.390100   0.000000   0.000000
  504       17.379542     17.383814   0.000000   0.000000
  505       17.420301     17.423328   0.000000   0.000000
  506       17.416486     17.421550   0.000000   0.000000
  507       17.416823     17.418886   0.000000   0.000000
  508       17.432587     17.437768   0.000000   0.000000
  509       17.432743     17.436487   0.000000   0.000000
  510       17.429925     17.449689   0.000000   0.000000
  511       17.446125     17.441348   0.000000   0.000000
  512       17.465594     17.486070   0.000000   0.000000