phonopy:
  version: "2.21.0"
  frequency_unit_conversion_factor: 15.633302
  symmetry_tolerance: 1.00000e-05
  configuration:
    dim: "1 1 1"
    atom_name: "B N C"
    anime: "0.0 0.0 0.0"

physical_unit:
  atomic_mass: "AMU"
  length: "angstrom"
  force_constants: "eV/angstrom^2"

space_group:
  type: "Pm"
  number: 6
  Hall_symbol: "P -2y"

supercell_matrix:
- [   1,   0,   0 ]
- [   0,   1,   0 ]
- [   0,   0,   1 ]

primitive_cell:
  lattice:
  - [    20.288381265355863,    -0.005568021381378,     0.000000000000000 ] # a
  - [    -0.006024342950140,    21.644685903860932,     0.000000000000000 ] # b
  - [     0.000000000000000,     0.000000000000000,    19.443286731476334 ] # c
  points:
  - symbol: B  # 1
    coordinates: [  0.062528206714925,  0.165739931496124,  0.499999999994977 ]
    mass: 10.811000
  - symbol: B  # 2
    coordinates: [  0.061799314912576,  0.365793484747939,  0.499999999994977 ]
    mass: 10.811000
  - symbol: B  # 3
    coordinates: [  0.060960801282138,  0.567682813118307,  0.499999999994977 ]
    mass: 10.811000
  - symbol: B  # 4
    coordinates: [  0.062086497916845,  0.767984785759928,  0.499999999994977 ]
    mass: 10.811000
  - symbol: B  # 5
    coordinates: [  0.062565359219251,  0.966881419290712,  0.499999999994977 ]
    mass: 10.811000
  - symbol: B  # 6
    coordinates: [  0.187653843057757,  0.166116686089086,  0.499999999994977 ]
    mass: 10.811000
  - symbol: B  # 7
    coordinates: [  0.185111524954907,  0.365940152305396,  0.499999999994977 ]
    mass: 10.811000
  - symbol: B  # 8
    coordinates: [  0.182240100054429,  0.567827794385900,  0.499999999994977 ]
    mass: 10.811000
  - symbol: B  # 9
    coordinates: [  0.186717434418388,  0.767741734420636,  0.499999999994977 ]
    mass: 10.811000
  - symbol: B  # 10
    coordinates: [  0.188069525956179,  0.966796074532641,  0.499999999994977 ]
    mass: 10.811000
  - symbol: B  # 11
    coordinates: [  0.312961238765724,  0.167510104707610,  0.499999999994977 ]
    mass: 10.811000
  - symbol: B  # 12
    coordinates: [  0.308877865106767,  0.366607415811452,  0.499999999994977 ]
    mass: 10.811000
  - symbol: B  # 13
    coordinates: [  0.302325236624794,  0.568291263788093,  0.499999999994977 ]
    mass: 10.811000
  - symbol: B  # 14
    coordinates: [  0.312232404524980,  0.765842206426115,  0.499999999994977 ]
    mass: 10.811000
  - symbol: B  # 15
    coordinates: [  0.313335433980901,  0.966529593225817,  0.499999999994977 ]
    mass: 10.811000
  - symbol: B  # 16
    coordinates: [  0.437928366006004,  0.169210096129378,  0.499999999994977 ]
    mass: 10.811000
  - symbol: B  # 17
    coordinates: [  0.434961322189797,  0.372719629408292,  0.499999999994977 ]
    mass: 10.811000
  - symbol: B  # 18
    coordinates: [  0.424949335573450,  0.560504910910843,  0.499999999994977 ]
    mass: 10.811000
  - symbol: B  # 19
    coordinates: [  0.437713489458968,  0.762981338463975,  0.499999999994977 ]
    mass: 10.811000
  - symbol: B  # 20
    coordinates: [  0.437879482617205,  0.966265933719518,  0.499999999994977 ]
    mass: 10.811000
  - symbol: B  # 21
    coordinates: [  0.562138351525482,  0.169223704445631,  0.499999999994977 ]
    mass: 10.811000
  - symbol: B  # 22
    coordinates: [  0.564352675409664,  0.373342082102543,  0.499999999994977 ]
    mass: 10.811000
  - symbol: B  # 23
    coordinates: [  0.575210836442663,  0.556686803986105,  0.499999999994977 ]
    mass: 10.811000
  - symbol: B  # 24
    coordinates: [  0.561873537333828,  0.762624245130636,  0.499999999994977 ]
    mass: 10.811000
  - symbol: B  # 25
    coordinates: [  0.562012896292166,  0.966168963255617,  0.499999999994977 ]
    mass: 10.811000
  - symbol: B  # 26
    coordinates: [  0.686953558081634,  0.167604305690414,  0.499999999994977 ]
    mass: 10.811000
  - symbol: B  # 27
    coordinates: [  0.691570624614770,  0.366305688033681,  0.499999999994977 ]
    mass: 10.811000
  - symbol: B  # 28
    coordinates: [  0.698201250061370,  0.567933160750368,  0.499999999994977 ]
    mass: 10.811000
  - symbol: B  # 29
    coordinates: [  0.687014930667386,  0.764937540418751,  0.499999999994977 ]
    mass: 10.811000
  - symbol: B  # 30
    coordinates: [  0.686435000253388,  0.966298383675009,  0.499999999994977 ]
    mass: 10.811000
  - symbol: B  # 31
    coordinates: [  0.812316851235486,  0.165991585598609,  0.499999999994977 ]
    mass: 10.811000
  - symbol: B  # 32
    coordinates: [  0.815339035864036,  0.365727185630169,  0.499999999994977 ]
    mass: 10.811000
  - symbol: B  # 33
    coordinates: [  0.818152402796719,  0.567670866624340,  0.499999999994977 ]
    mass: 10.811000
  - symbol: B  # 34
    coordinates: [  0.812839096781439,  0.767414655127440,  0.499999999994977 ]
    mass: 10.811000
  - symbol: B  # 35
    coordinates: [  0.811582701313666,  0.966565926043690,  0.499999999994977 ]
    mass: 10.811000
  - symbol: B  # 36
    coordinates: [  0.937442273818538,  0.165672183817428,  0.499999999994977 ]
    mass: 10.811000
  - symbol: B  # 37
    coordinates: [  0.938608956374087,  0.365722478790757,  0.499999999994977 ]
    mass: 10.811000
  - symbol: B  # 38
    coordinates: [  0.939358225723295,  0.567639424262891,  0.499999999994977 ]
    mass: 10.811000
  - symbol: B  # 39
    coordinates: [  0.937584567983634,  0.767896176875937,  0.499999999994977 ]
    mass: 10.811000
  - symbol: B  # 40
    coordinates: [  0.937110008284209,  0.966799336118559,  0.499999999994977 ]
    mass: 10.811000
  - symbol: B  # 41
    coordinates: [  0.999900497861318,  0.066205483635030,  0.499999999994977 ]
    mass: 10.811000
  - symbol: B  # 42
    coordinates: [  0.000089188971213,  0.265458444774529,  0.499999999994977 ]
    mass: 10.811000
  - symbol: B  # 43
    coordinates: [  0.000285027009456,  0.466647707061693,  0.499999999994977 ]
    mass: 10.811000
  - symbol: B  # 44
    coordinates: [  0.999945949975819,  0.668098282506608,  0.499999999994977 ]
    mass: 10.811000
  - symbol: B  # 45
    coordinates: [  0.999814493659552,  0.867489389485692,  0.499999999994977 ]
    mass: 10.811000
  - symbol: B  # 46
    coordinates: [  0.125333287086480,  0.066320980718860,  0.499999999994977 ]
    mass: 10.811000
  - symbol: B  # 47
    coordinates: [  0.124489844685134,  0.265615945547831,  0.499999999994977 ]
    mass: 10.811000
  - symbol: B  # 48
    coordinates: [  0.121851733197432,  0.466731238206268,  0.499999999994977 ]
    mass: 10.811000
  - symbol: B  # 49
    coordinates: [  0.123319636569913,  0.668136890789142,  0.499999999994977 ]
    mass: 10.811000
  - symbol: B  # 50
    coordinates: [  0.124997116376508,  0.867445223393661,  0.499999999994977 ]
    mass: 10.811000
  - symbol: B  # 51
    coordinates: [  0.250734673376347,  0.066769560014112,  0.499999999994977 ]
    mass: 10.811000
  - symbol: B  # 52
    coordinates: [  0.249139622308459,  0.266229437557883,  0.499999999994977 ]
    mass: 10.811000
  - symbol: B  # 53
    coordinates: [  0.242794500858020,  0.466987322370386,  0.499999999994977 ]
    mass: 10.811000
  - symbol: B  # 54
    coordinates: [  0.247013011134604,  0.667956259631239,  0.499999999994977 ]
    mass: 10.811000
  - symbol: B  # 55
    coordinates: [  0.250424896367346,  0.866671406349013,  0.499999999994977 ]
    mass: 10.811000
  - symbol: B  # 56
    coordinates: [  0.375696333658824,  0.067454012165939,  0.499999999994977 ]
    mass: 10.811000
  - symbol: B  # 57
    coordinates: [  0.374654655886637,  0.269099533273609,  0.499999999994977 ]
    mass: 10.811000
  - symbol: B  # 58
    coordinates: [  0.361777623164939,  0.467533284074632,  0.499999999994977 ]
    mass: 10.811000
  - symbol: B  # 59
    coordinates: [  0.372952319573955,  0.664083733505275,  0.499999999994977 ]
    mass: 10.811000
  - symbol: B  # 60
    coordinates: [  0.375633608634098,  0.865296607690880,  0.499999999994977 ]
    mass: 10.811000
  - symbol: B  # 61
    coordinates: [  0.499998680532400,  0.067679351743729,  0.499999999994977 ]
    mass: 10.811000
  - symbol: B  # 62
    coordinates: [  0.500073854044201,  0.272039488954962,  0.499999999994977 ]
    mass: 10.811000
  - symbol: B  # 63
    coordinates: [  0.466127641323735,  0.494028416943668,  0.499999999994977 ]
    mass: 10.811000
  - symbol: B  # 64
    coordinates: [  0.499499484772341,  0.658689409290531,  0.499999999994977 ]
    mass: 10.811000
  - symbol: B  # 65
    coordinates: [  0.499910576549355,  0.864594229866013,  0.499999999994977 ]
    mass: 10.811000
  - symbol: B  # 66
    coordinates: [  0.624245711393184,  0.067382319646463,  0.499999999994977 ]
    mass: 10.811000
  - symbol: B  # 67
    coordinates: [  0.625229562935674,  0.269502981852500,  0.499999999994977 ]
    mass: 10.811000
  - symbol: B  # 68
    coordinates: [  0.640564513606737,  0.467396728365700,  0.499999999994977 ]
    mass: 10.811000
  - symbol: B  # 69
    coordinates: [  0.625724799668000,  0.662303516728410,  0.499999999994977 ]
    mass: 10.811000
  - symbol: B  # 70
    coordinates: [  0.624060116978771,  0.864954884521065,  0.499999999994977 ]
    mass: 10.811000
  - symbol: B  # 71
    coordinates: [  0.749085864145844,  0.066681761206667,  0.499999999994977 ]
    mass: 10.811000
  - symbol: B  # 72
    coordinates: [  0.751011154591070,  0.266051810828727,  0.499999999994977 ]
    mass: 10.811000
  - symbol: B  # 73
    coordinates: [  0.758266059403146,  0.466756771828012,  0.499999999994977 ]
    mass: 10.811000
  - symbol: B  # 74
    coordinates: [  0.752562390550417,  0.667541968896164,  0.499999999994977 ]
    mass: 10.811000
  - symbol: B  # 75
    coordinates: [  0.749083723482284,  0.866192442908197,  0.499999999994977 ]
    mass: 10.811000
  - symbol: B  # 76
    coordinates: [  0.874463655982439,  0.066193847848235,  0.499999999994977 ]
    mass: 10.811000
  - symbol: B  # 77
    coordinates: [  0.875689369604669,  0.265480777664509,  0.499999999994977 ]
    mass: 10.811000
  - symbol: B  # 78
    coordinates: [  0.878825397895090,  0.466624409223683,  0.499999999994977 ]
    mass: 10.811000
  - symbol: B  # 79
    coordinates: [  0.876510077317072,  0.667989905667652,  0.499999999994977 ]
    mass: 10.811000
  - symbol: B  # 80
    coordinates: [  0.874597004185461,  0.867253991832527,  0.499999999994977 ]
    mass: 10.811000
  - symbol: N  # 81
    coordinates: [  0.062613339594849,  0.033495685714173,  0.499999999994977 ]
    mass: 14.006700
  - symbol: N  # 82
    coordinates: [  0.062342116472973,  0.232405986881772,  0.499999999994977 ]
    mass: 14.006700
  - symbol: N  # 83
    coordinates: [  0.061152310030143,  0.432680862413271,  0.499999999994977 ]
    mass: 14.006700
  - symbol: N  # 84
    coordinates: [  0.061494838161971,  0.634604861148520,  0.499999999994977 ]
    mass: 14.006700
  - symbol: N  # 85
    coordinates: [  0.062326963264623,  0.834653464682834,  0.499999999994977 ]
    mass: 14.006700
  - symbol: N  # 86
    coordinates: [  0.188119427647072,  0.033601836124525,  0.499999999994977 ]
    mass: 14.006700
  - symbol: N  # 87
    coordinates: [  0.187075096187281,  0.232784038756946,  0.499999999994977 ]
    mass: 14.006700
  - symbol: N  # 88
    coordinates: [  0.182713360751142,  0.432729642151366,  0.499999999994977 ]
    mass: 14.006700
  - symbol: N  # 89
    coordinates: [  0.184637687669574,  0.634677089697575,  0.499999999994977 ]
    mass: 14.006700
  - symbol: N  # 90
    coordinates: [  0.187410747953356,  0.834379509234812,  0.499999999994977 ]
    mass: 14.006700
  - symbol: N  # 91
    coordinates: [  0.313365031755524,  0.033725701596611,  0.499999999994977 ]
    mass: 14.006700
  - symbol: N  # 92
    coordinates: [  0.312556646013511,  0.234535416380573,  0.499999999994977 ]
    mass: 14.006700
  - symbol: N  # 93
    coordinates: [  0.303357985546244,  0.432775190139005,  0.499999999994977 ]
    mass: 14.006700
  - symbol: N  # 94
    coordinates: [  0.308163301161285,  0.634350862718622,  0.499999999994977 ]
    mass: 14.006700
  - symbol: N  # 95
    coordinates: [  0.312765377373520,  0.832858202589649,  0.499999999994977 ]
    mass: 14.006700
  - symbol: N  # 96
    coordinates: [  0.437901961657477,  0.033767061391630,  0.499999999994977 ]
    mass: 14.006700
  - symbol: N  # 97
    coordinates: [  0.437977150076992,  0.236977874312908,  0.499999999994977 ]
    mass: 14.006700
  - symbol: N  # 98
    coordinates: [  0.425743644282831,  0.439183003211424,  0.499999999994977 ]
    mass: 14.006700
  - symbol: N  # 99
    coordinates: [  0.434489559723004,  0.627623228770205,  0.499999999994977 ]
    mass: 14.006700
  - symbol: N  # 100
    coordinates: [  0.437780487096391,  0.830779362658237,  0.499999999994977 ]
    mass: 14.006700
  - symbol: N  # 101
    coordinates: [  0.562048961224870,  0.033700504072151,  0.499999999994977 ]
    mass: 14.006700
  - symbol: N  # 102
    coordinates: [  0.562169234885999,  0.237083336499593,  0.499999999994977 ]
    mass: 14.006700
  - symbol: N  # 103
    coordinates: [  0.575381716999650,  0.441192682197322,  0.499999999994977 ]
    mass: 14.006700
  - symbol: N  # 104
    coordinates: [  0.563735698429896,  0.624764545869815,  0.499999999994977 ]
    mass: 14.006700
  - symbol: N  # 105
    coordinates: [  0.561946475625247,  0.830490652761779,  0.499999999994977 ]
    mass: 14.006700
  - symbol: N  # 106
    coordinates: [  0.686484795097929,  0.033564380990229,  0.499999999994977 ]
    mass: 14.006700
  - symbol: N  # 107
    coordinates: [  0.687342224224604,  0.234769121064505,  0.499999999994977 ]
    mass: 14.006700
  - symbol: N  # 108
    coordinates: [  0.697912737362510,  0.432253308394627,  0.499999999994977 ]
    mass: 14.006700
  - symbol: N  # 109
    coordinates: [  0.691328243931296,  0.633730876467685,  0.499999999994977 ]
    mass: 14.006700
  - symbol: N  # 110
    coordinates: [  0.686702726411758,  0.832146516956474,  0.499999999994977 ]
    mass: 14.006700
  - symbol: N  # 111
    coordinates: [  0.811623948937646,  0.033437498910903,  0.499999999994977 ]
    mass: 14.006700
  - symbol: N  # 112
    coordinates: [  0.813008520886288,  0.232661837294143,  0.499999999994977 ]
    mass: 14.006700
  - symbol: N  # 113
    coordinates: [  0.818051221187494,  0.432496265721567,  0.499999999994977 ]
    mass: 14.006700
  - symbol: N  # 114
    coordinates: [  0.815156362487735,  0.634452633496795,  0.499999999994977 ]
    mass: 14.006700
  - symbol: N  # 115
    coordinates: [  0.812150327091801,  0.834049814505701,  0.499999999994977 ]
    mass: 14.006700
  - symbol: N  # 116
    coordinates: [  0.937145188177593,  0.033424233303665,  0.499999999994977 ]
    mass: 14.006700
  - symbol: N  # 117
    coordinates: [  0.937765429474319,  0.232342888292557,  0.499999999994977 ]
    mass: 14.006700
  - symbol: N  # 118
    coordinates: [  0.939401673299093,  0.432608624850298,  0.499999999994977 ]
    mass: 14.006700
  - symbol: N  # 119
    coordinates: [  0.938406115727986,  0.634544971454560,  0.499999999994977 ]
    mass: 14.006700
  - symbol: N  # 120
    coordinates: [  0.937282748893677,  0.834562002896932,  0.499999999994977 ]
    mass: 14.006700
  - symbol: N  # 121
    coordinates: [  0.999958351678026,  0.132824205985409,  0.499999999994977 ]
    mass: 14.006700
  - symbol: N  # 122
    coordinates: [  0.000163304988355,  0.332214002713981,  0.499999999994977 ]
    mass: 14.006700
  - symbol: N  # 123
    coordinates: [  0.000158025408289,  0.533650980340503,  0.499999999994977 ]
    mass: 14.006700
  - symbol: N  # 124
    coordinates: [  0.999844614042096,  0.734867517619574,  0.499999999994977 ]
    mass: 14.006700
  - symbol: N  # 125
    coordinates: [  0.999826704692111,  0.934106572247372,  0.499999999994977 ]
    mass: 14.006700
  - symbol: N  # 126
    coordinates: [  0.125190064874328,  0.132988395119245,  0.499999999994977 ]
    mass: 14.006700
  - symbol: N  # 127
    coordinates: [  0.123669722683974,  0.332335532264490,  0.499999999994977 ]
    mass: 14.006700
  - symbol: N  # 128
    coordinates: [  0.121547822764491,  0.533707806259711,  0.499999999994977 ]
    mass: 14.006700
  - symbol: N  # 129
    coordinates: [  0.124150831712348,  0.734871265678469,  0.499999999994977 ]
    mass: 14.006700
  - symbol: N  # 130
    coordinates: [  0.125243029852824,  0.934100739476385,  0.499999999994977 ]
    mass: 14.006700
  - symbol: N  # 131
    coordinates: [  0.250606795294252,  0.133711586602542,  0.499999999994977 ]
    mass: 14.006700
  - symbol: N  # 132
    coordinates: [  0.247569116429365,  0.332750769032001,  0.499999999994977 ]
    mass: 14.006700
  - symbol: N  # 133
    coordinates: [  0.242141664074724,  0.533796485175763,  0.499999999994977 ]
    mass: 14.006700
  - symbol: N  # 134
    coordinates: [  0.248709528003766,  0.734417468996913,  0.499999999994977 ]
    mass: 14.006700
  - symbol: N  # 135
    coordinates: [  0.250650508144216,  0.933601455829242,  0.499999999994977 ]
    mass: 14.006700
  - symbol: N  # 136
    coordinates: [  0.375756145297472,  0.134852213790563,  0.499999999994977 ]
    mass: 14.006700
  - symbol: N  # 137
    coordinates: [  0.373510134646554,  0.336193627192060,  0.499999999994977 ]
    mass: 14.006700
  - symbol: N  # 138
    coordinates: [  0.360574591681891,  0.534045034384188,  0.499999999994977 ]
    mass: 14.006700
  - symbol: N  # 139
    coordinates: [  0.374340161965930,  0.731265397146206,  0.499999999994977 ]
    mass: 14.006700
  - symbol: N  # 140
    coordinates: [  0.375633369265605,  0.932702701238290,  0.499999999994977 ]
    mass: 14.006700
  - symbol: N  # 141
    coordinates: [  0.500040836788308,  0.135314925633452,  0.499999999994977 ]
    mass: 14.006700
  - symbol: N  # 142
    coordinates: [  0.500075585876880,  0.340887746237674,  0.499999999994977 ]
    mass: 14.006700
  - symbol: N  # 143
    coordinates: [  0.499836500129675,  0.727479382972252,  0.499999999994977 ]
    mass: 14.006700
  - symbol: N  # 144
    coordinates: [  0.499932230086671,  0.932226380182055,  0.499999999994977 ]
    mass: 14.006700
  - symbol: N  # 145
    coordinates: [  0.624240438800349,  0.134846573199286,  0.499999999994977 ]
    mass: 14.006700
  - symbol: N  # 146
    coordinates: [  0.626246026659987,  0.337013013727812,  0.499999999994977 ]
    mass: 14.006700
  - symbol: N  # 147
    coordinates: [  0.640520386121626,  0.533158210742411,  0.499999999994977 ]
    mass: 14.006700
  - symbol: N  # 148
    coordinates: [  0.624763779964265,  0.729919824864106,  0.499999999994977 ]
    mass: 14.006700
  - symbol: N  # 149
    coordinates: [  0.624159556719551,  0.932434852074777,  0.499999999994977 ]
    mass: 14.006700
  - symbol: N  # 150
    coordinates: [  0.749260548066361,  0.133700191034735,  0.499999999994977 ]
    mass: 14.006700
  - symbol: N  # 151
    coordinates: [  0.752735905366882,  0.332531371976164,  0.499999999994977 ]
    mass: 14.006700
  - symbol: N  # 152
    coordinates: [  0.758363680142382,  0.533490990526319,  0.499999999994977 ]
    mass: 14.006700
  - symbol: N  # 153
    coordinates: [  0.750779514618904,  0.733930016077996,  0.499999999994977 ]
    mass: 14.006700
  - symbol: N  # 154
    coordinates: [  0.748991888196591,  0.933223174896356,  0.499999999994977 ]
    mass: 14.006700
  - symbol: N  # 155
    coordinates: [  0.874716332430794,  0.132882037115279,  0.499999999994977 ]
    mass: 14.006700
  - symbol: N  # 156
    coordinates: [  0.876665541054027,  0.332196028528228,  0.499999999994977 ]
    mass: 14.006700
  - symbol: N  # 157
    coordinates: [  0.878812222362139,  0.533589612637537,  0.499999999994977 ]
    mass: 14.006700
  - symbol: N  # 158
    coordinates: [  0.875491210808162,  0.734694922788456,  0.499999999994977 ]
    mass: 14.006700
  - symbol: N  # 159
    coordinates: [  0.874396179352418,  0.933929159558334,  0.499999999994977 ]
    mass: 14.006700
  - symbol: C  # 160
    coordinates: [  0.536489332896120,  0.493920250403390,  0.499999999994977 ]
    mass: 12.010700
  reciprocal_lattice: # without 2pi
  - [     0.049289298308548,     0.000013718639212,     0.000000000000000 ] # a*
  - [     0.000012679503324,     0.046200720159552,     0.000000000000000 ] # b*
  - [     0.000000000000000,     0.000000000000000,     0.051431633643561 ] # c*

unit_cell:
  lattice:
  - [    20.288381265355863,    -0.005568021381378,     0.000000000000000 ] # a
  - [    -0.006024342950140,    21.644685903860932,     0.000000000000000 ] # b
  - [     0.000000000000000,     0.000000000000000,    19.443286731476334 ] # c
  points:
  - symbol: B  # 1
    coordinates: [  0.062528206714925,  0.165739931496124,  0.499999999994977 ]
    mass: 10.811000
    reduced_to: 1
  - symbol: B  # 2
    coordinates: [  0.061799314912576,  0.365793484747939,  0.499999999994977 ]
    mass: 10.811000
    reduced_to: 2
  - symbol: B  # 3
    coordinates: [  0.060960801282138,  0.567682813118307,  0.499999999994977 ]
    mass: 10.811000
    reduced_to: 3
  - symbol: B  # 4
    coordinates: [  0.062086497916845,  0.767984785759928,  0.499999999994977 ]
    mass: 10.811000
    reduced_to: 4
  - symbol: B  # 5
    coordinates: [  0.062565359219251,  0.966881419290712,  0.499999999994977 ]
    mass: 10.811000
    reduced_to: 5
  - symbol: B  # 6
    coordinates: [  0.187653843057757,  0.166116686089086,  0.499999999994977 ]
    mass: 10.811000
    reduced_to: 6
  - symbol: B  # 7
    coordinates: [  0.185111524954907,  0.365940152305396,  0.499999999994977 ]
    mass: 10.811000
    reduced_to: 7
  - symbol: B  # 8
    coordinates: [  0.182240100054429,  0.567827794385900,  0.499999999994977 ]
    mass: 10.811000
    reduced_to: 8
  - symbol: B  # 9
    coordinates: [  0.186717434418388,  0.767741734420636,  0.499999999994977 ]
    mass: 10.811000
    reduced_to: 9
  - symbol: B  # 10
    coordinates: [  0.188069525956179,  0.966796074532641,  0.499999999994977 ]
    mass: 10.811000
    reduced_to: 10
  - symbol: B  # 11
    coordinates: [  0.312961238765724,  0.167510104707610,  0.499999999994977 ]
    mass: 10.811000
    reduced_to: 11
  - symbol: B  # 12
    coordinates: [  0.308877865106767,  0.366607415811452,  0.499999999994977 ]
    mass: 10.811000
    reduced_to: 12
  - symbol: B  # 13
    coordinates: [  0.302325236624794,  0.568291263788093,  0.499999999994977 ]
    mass: 10.811000
    reduced_to: 13
  - symbol: B  # 14
    coordinates: [  0.312232404524980,  0.765842206426115,  0.499999999994977 ]
    mass: 10.811000
    reduced_to: 14
  - symbol: B  # 15
    coordinates: [  0.313335433980901,  0.966529593225817,  0.499999999994977 ]
    mass: 10.811000
    reduced_to: 15
  - symbol: B  # 16
    coordinates: [  0.437928366006004,  0.169210096129378,  0.499999999994977 ]
    mass: 10.811000
    reduced_to: 16
  - symbol: B  # 17
    coordinates: [  0.434961322189797,  0.372719629408292,  0.499999999994977 ]
    mass: 10.811000
    reduced_to: 17
  - symbol: B  # 18
    coordinates: [  0.424949335573450,  0.560504910910843,  0.499999999994977 ]
    mass: 10.811000
    reduced_to: 18
  - symbol: B  # 19
    coordinates: [  0.437713489458968,  0.762981338463975,  0.499999999994977 ]
    mass: 10.811000
    reduced_to: 19
  - symbol: B  # 20
    coordinates: [  0.437879482617205,  0.966265933719518,  0.499999999994977 ]
    mass: 10.811000
    reduced_to: 20
  - symbol: B  # 21
    coordinates: [  0.562138351525482,  0.169223704445631,  0.499999999994977 ]
    mass: 10.811000
    reduced_to: 21
  - symbol: B  # 22
    coordinates: [  0.564352675409664,  0.373342082102543,  0.499999999994977 ]
    mass: 10.811000
    reduced_to: 22
  - symbol: B  # 23
    coordinates: [  0.575210836442663,  0.556686803986105,  0.499999999994977 ]
    mass: 10.811000
    reduced_to: 23
  - symbol: B  # 24
    coordinates: [  0.561873537333828,  0.762624245130636,  0.499999999994977 ]
    mass: 10.811000
    reduced_to: 24
  - symbol: B  # 25
    coordinates: [  0.562012896292166,  0.966168963255617,  0.499999999994977 ]
    mass: 10.811000
    reduced_to: 25
  - symbol: B  # 26
    coordinates: [  0.686953558081634,  0.167604305690414,  0.499999999994977 ]
    mass: 10.811000
    reduced_to: 26
  - symbol: B  # 27
    coordinates: [  0.691570624614770,  0.366305688033681,  0.499999999994977 ]
    mass: 10.811000
    reduced_to: 27
  - symbol: B  # 28
    coordinates: [  0.698201250061370,  0.567933160750368,  0.499999999994977 ]
    mass: 10.811000
    reduced_to: 28
  - symbol: B  # 29
    coordinates: [  0.687014930667386,  0.764937540418751,  0.499999999994977 ]
    mass: 10.811000
    reduced_to: 29
  - symbol: B  # 30
    coordinates: [  0.686435000253388,  0.966298383675009,  0.499999999994977 ]
    mass: 10.811000
    reduced_to: 30
  - symbol: B  # 31
    coordinates: [  0.812316851235486,  0.165991585598609,  0.499999999994977 ]
    mass: 10.811000
    reduced_to: 31
  - symbol: B  # 32
    coordinates: [  0.815339035864036,  0.365727185630169,  0.499999999994977 ]
    mass: 10.811000
    reduced_to: 32
  - symbol: B  # 33
    coordinates: [  0.818152402796719,  0.567670866624340,  0.499999999994977 ]
    mass: 10.811000
    reduced_to: 33
  - symbol: B  # 34
    coordinates: [  0.812839096781439,  0.767414655127440,  0.499999999994977 ]
    mass: 10.811000
    reduced_to: 34
  - symbol: B  # 35
    coordinates: [  0.811582701313666,  0.966565926043690,  0.499999999994977 ]
    mass: 10.811000
    reduced_to: 35
  - symbol: B  # 36
    coordinates: [  0.937442273818538,  0.165672183817428,  0.499999999994977 ]
    mass: 10.811000
    reduced_to: 36
  - symbol: B  # 37
    coordinates: [  0.938608956374087,  0.365722478790757,  0.499999999994977 ]
    mass: 10.811000
    reduced_to: 37
  - symbol: B  # 38
    coordinates: [  0.939358225723295,  0.567639424262891,  0.499999999994977 ]
    mass: 10.811000
    reduced_to: 38
  - symbol: B  # 39
    coordinates: [  0.937584567983634,  0.767896176875937,  0.499999999994977 ]
    mass: 10.811000
    reduced_to: 39
  - symbol: B  # 40
    coordinates: [  0.937110008284209,  0.966799336118559,  0.499999999994977 ]
    mass: 10.811000
    reduced_to: 40
  - symbol: B  # 41
    coordinates: [  0.999900497861318,  0.066205483635030,  0.499999999994977 ]
    mass: 10.811000
    reduced_to: 41
  - symbol: B  # 42
    coordinates: [  0.000089188971213,  0.265458444774529,  0.499999999994977 ]
    mass: 10.811000
    reduced_to: 42
  - symbol: B  # 43
    coordinates: [  0.000285027009456,  0.466647707061693,  0.499999999994977 ]
    mass: 10.811000
    reduced_to: 43
  - symbol: B  # 44
    coordinates: [  0.999945949975819,  0.668098282506608,  0.499999999994977 ]
    mass: 10.811000
    reduced_to: 44
  - symbol: B  # 45
    coordinates: [  0.999814493659552,  0.867489389485692,  0.499999999994977 ]
    mass: 10.811000
    reduced_to: 45
  - symbol: B  # 46
    coordinates: [  0.125333287086480,  0.066320980718860,  0.499999999994977 ]
    mass: 10.811000
    reduced_to: 46
  - symbol: B  # 47
    coordinates: [  0.124489844685134,  0.265615945547831,  0.499999999994977 ]
    mass: 10.811000
    reduced_to: 47
  - symbol: B  # 48
    coordinates: [  0.121851733197432,  0.466731238206268,  0.499999999994977 ]
    mass: 10.811000
    reduced_to: 48
  - symbol: B  # 49
    coordinates: [  0.123319636569913,  0.668136890789142,  0.499999999994977 ]
    mass: 10.811000
    reduced_to: 49
  - symbol: B  # 50
    coordinates: [  0.124997116376508,  0.867445223393661,  0.499999999994977 ]
    mass: 10.811000
    reduced_to: 50
  - symbol: B  # 51
    coordinates: [  0.250734673376347,  0.066769560014112,  0.499999999994977 ]
    mass: 10.811000
    reduced_to: 51
  - symbol: B  # 52
    coordinates: [  0.249139622308459,  0.266229437557883,  0.499999999994977 ]
    mass: 10.811000
    reduced_to: 52
  - symbol: B  # 53
    coordinates: [  0.242794500858020,  0.466987322370386,  0.499999999994977 ]
    mass: 10.811000
    reduced_to: 53
  - symbol: B  # 54
    coordinates: [  0.247013011134604,  0.667956259631239,  0.499999999994977 ]
    mass: 10.811000
    reduced_to: 54
  - symbol: B  # 55
    coordinates: [  0.250424896367346,  0.866671406349013,  0.499999999994977 ]
    mass: 10.811000
    reduced_to: 55
  - symbol: B  # 56
    coordinates: [  0.375696333658824,  0.067454012165939,  0.499999999994977 ]
    mass: 10.811000
    reduced_to: 56
  - symbol: B  # 57
    coordinates: [  0.374654655886637,  0.269099533273609,  0.499999999994977 ]
    mass: 10.811000
    reduced_to: 57
  - symbol: B  # 58
    coordinates: [  0.361777623164939,  0.467533284074632,  0.499999999994977 ]
    mass: 10.811000
    reduced_to: 58
  - symbol: B  # 59
    coordinates: [  0.372952319573955,  0.664083733505275,  0.499999999994977 ]
    mass: 10.811000
    reduced_to: 59
  - symbol: B  # 60
    coordinates: [  0.375633608634098,  0.865296607690880,  0.499999999994977 ]
    mass: 10.811000
    reduced_to: 60
  - symbol: B  # 61
    coordinates: [  0.499998680532400,  0.067679351743729,  0.499999999994977 ]
    mass: 10.811000
    reduced_to: 61
  - symbol: B  # 62
    coordinates: [  0.500073854044201,  0.272039488954962,  0.499999999994977 ]
    mass: 10.811000
    reduced_to: 62
  - symbol: B  # 63
    coordinates: [  0.466127641323735,  0.494028416943668,  0.499999999994977 ]
    mass: 10.811000
    reduced_to: 63
  - symbol: B  # 64
    coordinates: [  0.499499484772341,  0.658689409290531,  0.499999999994977 ]
    mass: 10.811000
    reduced_to: 64
  - symbol: B  # 65
    coordinates: [  0.499910576549355,  0.864594229866013,  0.499999999994977 ]
    mass: 10.811000
    reduced_to: 65
  - symbol: B  # 66
    coordinates: [  0.624245711393184,  0.067382319646463,  0.499999999994977 ]
    mass: 10.811000
    reduced_to: 66
  - symbol: B  # 67
    coordinates: [  0.625229562935674,  0.269502981852500,  0.499999999994977 ]
    mass: 10.811000
    reduced_to: 67
  - symbol: B  # 68
    coordinates: [  0.640564513606737,  0.467396728365700,  0.499999999994977 ]
    mass: 10.811000
    reduced_to: 68
  - symbol: B  # 69