       N       E                     dE             d eps       ncg     rms          ort
SDA:   1    -0.240105240622E+04   -0.24011E+04   -0.17008E+00   648   0.850E+00 0.000E+00
DMP:   2    -0.240119749227E+04   -0.14509E+00   -0.14332E+00   648   0.405E+00 0.601E+00
DMP:   3    -0.240130678410E+04   -0.10929E+00   -0.63249E-01   648   0.121E+00 0.377E+00
DMP:   4    -0.240134958431E+04   -0.42800E-01   -0.19698E-01   648   0.401E-01 0.112E+00
DMP:   5    -0.240136185218E+04   -0.12268E-01   -0.95177E-02   648   0.347E-01 0.247E-01
DMP:   6    -0.240136913657E+04   -0.72844E-02   -0.87220E-02   648   0.303E-01 0.256E-01
DMP:   7    -0.240137634175E+04   -0.72052E-02   -0.65087E-02   648   0.176E-01 0.287E-01
DMP:   8    -0.240138144812E+04   -0.51064E-02   -0.34935E-02   648   0.778E-02 0.187E-01
DMP:   9    -0.240138407362E+04   -0.26255E-02   -0.17093E-02   648   0.394E-02 0.887E-02
DMP:  10    -0.240138540929E+04   -0.13357E-02   -0.10371E-02   648   0.266E-02 0.487E-02
DMP:  11    -0.240138628023E+04   -0.87095E-03   -0.71672E-03   648   0.173E-02 0.357E-02
DMP:  12    -0.240138689075E+04   -0.61051E-03   -0.46200E-03   648   0.978E-03 0.256E-02
DMP:  13    -0.240138728159E+04   -0.39084E-03   -0.27787E-03   648   0.538E-03 0.164E-02
DMP:  14    -0.240138751913E+04   -0.23754E-03   -0.17608E-03   648   0.349E-03 0.102E-02
DMP:  15    -0.240138767351E+04   -0.15438E-03   -0.12293E-03   648   0.252E-03 0.698E-03
DMP:  16    -0.240138778283E+04   -0.10932E-03   -0.91141E-04   648   0.191E-03 0.509E-03
DMP:  17    -0.240138786426E+04   -0.81433E-04   -0.70128E-04   648   0.150E-03 0.387E-03
DMP:  18    -0.240138792730E+04   -0.63039E-04   -0.56361E-04   648   0.123E-03 0.305E-03
DMP:  19    -0.240138797822E+04   -0.50921E-04   -0.46722E-04   648   0.103E-03 0.251E-03
DMP:  20    -0.240138802060E+04   -0.42373E-04   -0.39840E-04   648   0.892E-04 0.212E-03
DMP:  21    -0.240138805685E+04   -0.36249E-04   -0.34780E-04   648   0.789E-04 0.183E-03
DMP:  22    -0.240138808854E+04   -0.31691E-04   -0.30885E-04   648   0.709E-04 0.161E-03
DMP:  23    -0.240138811672E+04   -0.28189E-04   -0.27840E-04   648   0.646E-04 0.144E-03
DMP:  24    -0.240138814217E+04   -0.25443E-04   -0.25356E-04   648   0.594E-04 0.130E-03
DMP:  25    -0.240138816537E+04   -0.23198E-04   -0.23529E-04   648   0.562E-04 0.118E-03
DMP:  26    -0.240138818691E+04   -0.21544E-04   -0.21893E-04   648   0.525E-04 0.110E-03
DMP:  27    -0.240138820696E+04   -0.20049E-04   -0.20350E-04   648   0.489E-04 0.102E-03
DMP:  28    -0.240138822558E+04   -0.18625E-04   -0.18756E-04   648   0.448E-04 0.943E-04
DMP:  29    -0.240138824273E+04   -0.17149E-04   -0.17055E-04   648   0.404E-04 0.865E-04
DMP:  30    -0.240138825831E+04   -0.15579E-04   -0.15278E-04   648   0.357E-04 0.782E-04
DMP:  31    -0.240138827226E+04   -0.13947E-04   -0.13498E-04   648   0.312E-04 0.698E-04
DMP:  32    -0.240138828458E+04   -0.12320E-04   -0.11774E-04   648   0.270E-04 0.613E-04
DMP:  33    -0.240138829532E+04   -0.10745E-04   -0.10168E-04   648   0.232E-04 0.533E-04
DMP:  34    -0.240138830460E+04   -0.92765E-05   -0.87028E-05   648   0.197E-04 0.458E-04
   1 F= -.24013883E+04 E0= -.24013883E+04  d E =-.240139E+04  mag=     2.0000
       N       E                     dE             d eps       ncg     rms          ort
SDA:   1    -0.237415626558E+04    0.27232E+02   -0.10843E+02   648   0.542E+02 0.000E+00
DMP:   2    -0.238366265417E+04   -0.95064E+01   -0.10688E+02   648   0.322E+02 0.408E+02
DMP:   3    -0.239219026418E+04   -0.85276E+01   -0.58949E+01   648   0.130E+02 0.318E+02
DMP:   4    -0.239649652304E+04   -0.43063E+01   -0.22856E+01   648   0.440E+01 0.135E+02
DMP:   5    -0.239802726440E+04   -0.15307E+01   -0.79502E+00   648   0.198E+01 0.384E+01
DMP:   6    -0.239852820835E+04   -0.50094E+00   -0.33068E+00   648   0.113E+01 0.102E+01
DMP:   7    -0.239872842318E+04   -0.20021E+00   -0.14672E+00   648   0.557E+00 0.339E+00
DMP:   8    -0.239880873116E+04   -0.80308E-01   -0.61103E-01   648   0.272E+00 0.645E-01
DMP:   9    -0.239884147116E+04   -0.32740E-01   -0.39019E-01   648   0.185E+00 0.196E-01
DMP:  10    -0.239886946322E+04   -0.27992E-01   -0.35206E-01   648   0.132E+00 0.840E-01
DMP:  11    -0.239889782797E+04   -0.28365E-01   -0.26145E-01   648   0.748E-01 0.108E+00
DMP:  12    -0.239891849429E+04   -0.20666E-01   -0.14520E-01   648   0.330E-01 0.763E-01
DMP:  13    -0.239892940508E+04   -0.10911E-01   -0.64664E-02   648   0.131E-01 0.371E-01
DMP:  14    -0.239893400750E+04   -0.46024E-02   -0.27618E-02   648   0.632E-02 0.144E-01
DMP:  15    -0.239893591720E+04   -0.19097E-02   -0.14453E-02   648   0.404E-02 0.614E-02
DMP:  16    -0.239893693359E+04   -0.10164E-02   -0.95911E-03   648   0.278E-02 0.388E-02
DMP:  17    -0.239893761714E+04   -0.68355E-03   -0.69068E-03   648   0.188E-02 0.303E-02
DMP:  18    -0.239893810599E+04   -0.48884E-03   -0.52148E-03   648   0.134E-02 0.244E-02
DMP:  19    -0.239893847270E+04   -0.36672E-03   -0.41990E-03   648   0.103E-02 0.205E-02
DMP:  20    -0.239893876648E+04   -0.29378E-03   -0.35308E-03   648   0.838E-03 0.179E-02
DMP:  21    -0.239893901147E+04   -0.24498E-03   -0.30409E-03   648   0.707E-03 0.157E-02
DMP:  22    -0.239893922087E+04   -0.20941E-03   -0.26945E-03   648   0.630E-03 0.138E-02
DMP:  23    -0.239893940622E+04   -0.18535E-03   -0.24513E-03   648   0.581E-03 0.124E-02
DMP:  24    -0.239893957551E+04   -0.16929E-03   -0.22655E-03   648   0.544E-03 0.113E-02
DMP:  25    -0.239893973284E+04   -0.15733E-03   -0.20928E-03   648   0.504E-03 0.104E-02
DMP:  26    -0.239893987880E+04   -0.14596E-03   -0.19044E-03   648   0.456E-03 0.955E-03
DMP:  27    -0.239894001193E+04   -0.13313E-03   -0.16949E-03   648   0.401E-03 0.859E-03
DMP:  28    -0.239894013064E+04   -0.11871E-03   -0.14705E-03   648   0.342E-03 0.756E-03
DMP:  29    -0.239894023399E+04   -0.10335E-03   -0.12396E-03   648   0.282E-03 0.650E-03
DMP:  30    -0.239894032161E+04   -0.87624E-04   -0.10178E-03   648   0.226E-03 0.544E-03
DMP:  31    -0.239894039418E+04   -0.72571E-04   -0.81946E-04   648   0.179E-03 0.445E-03
DMP:  32    -0.239894045331E+04   -0.59130E-04   -0.65287E-04   648   0.140E-03 0.358E-03
DMP:  33    -0.239894050115E+04   -0.47841E-04   -0.51888E-04   648   0.111E-03 0.286E-03
DMP:  34    -0.239894053987E+04   -0.38718E-04   -0.41479E-04   648   0.891E-04 0.228E-03
DMP:  35    -0.239894057145E+04   -0.31577E-04   -0.33456E-04   648   0.723E-04 0.183E-03
DMP:  36    -0.239894059744E+04   -0.25994E-04   -0.27244E-04   648   0.592E-04 0.148E-03
DMP:  37    -0.239894061901E+04   -0.21567E-04   -0.22404E-04   648   0.490E-04 0.121E-03
DMP:  38    -0.239894063703E+04   -0.18020E-04   -0.18552E-04   648   0.408E-04 0.100E-03
DMP:  39    -0.239894065214E+04   -0.15112E-04   -0.15474E-04   648   0.342E-04 0.831E-04
DMP:  40    -0.239894066487E+04   -0.12726E-04   -0.13012E-04   648   0.290E-04 0.694E-04
DMP:  41    -0.239894067564E+04   -0.10774E-04   -0.11020E-04   648   0.247E-04 0.585E-04
DMP:  42    -0.239894068480E+04   -0.91579E-05   -0.93884E-05   648   0.212E-04 0.495E-04
   2 F= -.23989407E+04 E0= -.23989407E+04  d E =0.244762E+01  mag=     2.0000
       N       E                     dE             d eps       ncg     rms          ort
SDA:   1    -0.238651938285E+04    0.12421E+02   -0.65538E+01   648   0.328E+02 0.000E+00
DMP:   2    -0.239226746630E+04   -0.57481E+01   -0.64337E+01   648   0.193E+02 0.247E+02
DMP:   3    -0.239740403057E+04   -0.51366E+01   -0.35502E+01   648   0.776E+01 0.192E+02
DMP:   4    -0.240000179468E+04   -0.25978E+01   -0.13891E+01   648   0.265E+01 0.826E+01
DMP:   5    -0.240093816734E+04   -0.93637E+00   -0.49243E+00   648   0.119E+01 0.244E+01
DMP:   6    -0.240125280991E+04   -0.31464E+00   -0.20629E+00   648   0.669E+00 0.697E+00
DMP:   7    -0.240137998255E+04   -0.12717E+00   -0.92087E-01   648   0.332E+00 0.248E+00
DMP:   8    -0.240143170481E+04   -0.51722E-01   -0.38814E-01   648   0.162E+00 0.615E-01
DMP:   9    -0.240145249374E+04   -0.20789E-01   -0.23450E-01   648   0.109E+00 0.165E-01
DMP:  10    -0.240146868753E+04   -0.16194E-01   -0.20837E-01   648   0.802E-01 0.461E-01
DMP:  11    -0.240148517647E+04   -0.16489E-01   -0.15796E-01   648   0.470E-01 0.615E-01
DMP:  12    -0.240149744685E+04   -0.12270E-01   -0.87094E-02   648   0.205E-01 0.443E-01
DMP:  13    -0.240150377981E+04   -0.63330E-02   -0.35859E-02   648   0.743E-02 0.202E-01
DMP:  14    -0.240150617917E+04   -0.23994E-02   -0.13054E-02   648   0.321E-02 0.638E-02
DMP:  15    -0.240150700519E+04   -0.82603E-03   -0.59158E-03   648   0.194E-02 0.195E-02
DMP:  16    -0.240150739929E+04   -0.39410E-03   -0.36235E-03   648   0.123E-02 0.113E-02
DMP:  17    -0.240150765926E+04   -0.25997E-03   -0.23333E-03   648   0.708E-03 0.884E-03
DMP:  18    -0.240150783237E+04   -0.17311E-03   -0.14640E-03   648   0.405E-03 0.630E-03
DMP:  19    -0.240150794390E+04   -0.11153E-03   -0.95413E-04   648   0.252E-03 0.433E-03
DMP:  20    -0.240150801844E+04   -0.74546E-04   -0.65529E-04   648   0.166E-03 0.312E-03
DMP:  21    -0.240150806984E+04   -0.51394E-04   -0.45789E-04   648   0.110E-03 0.228E-03
DMP:  22    -0.240150810510E+04   -0.35260E-04   -0.32339E-04   648   0.758E-04 0.165E-03
DMP:  23    -0.240150812941E+04   -0.24316E-04   -0.23970E-04   648   0.563E-04 0.122E-03
DMP:  24    -0.240150814716E+04   -0.17751E-04   -0.19369E-04   648   0.465E-04 0.969E-04
DMP:  25    -0.240150816145E+04   -0.14283E-04   -0.16653E-04   648   0.402E-04 0.829E-04
DMP:  26    -0.240150817372E+04   -0.12271E-04   -0.14692E-04   648   0.352E-04 0.737E-04
DMP:  27    -0.240150818453E+04   -0.10812E-04   -0.13061E-04   648   0.310E-04 0.660E-04
DMP:  28    -0.240150819412E+04   -0.95932E-05   -0.11645E-04   648   0.276E-04 0.590E-04
DMP:  29    -0.240150820265E+04   -0.85325E-05   -0.10334E-04   648   0.244E-04 0.524E-04
DMP:  30    -0.240150821021E+04   -0.75513E-05   -0.90572E-05   648   0.213E-04 0.462E-04
   3 F= -.24015082E+04 E0= -.24015082E+04  d E =-.119906E+00  mag=     2.0000
       N       E                     dE             d eps       ncg     rms          ort
SDA:   1    -0.240150546750E+04    0.27352E-02   -0.14718E-02   648   0.736E-02 0.000E+00
DMP:   2    -0.240150676158E+04   -0.12941E-02   -0.14448E-02   648   0.432E-02 0.558E-02
DMP:   3    -0.240150792276E+04   -0.11612E-02   -0.80593E-03   648   0.175E-02 0.439E-02
DMP:   4    -0.240150852114E+04   -0.59837E-03   -0.32798E-03   648   0.621E-03 0.196E-02
DMP:   5    -0.240150875040E+04   -0.22927E-03   -0.12929E-03   648   0.305E-03 0.658E-03
DMP:   6    -0.240150884024E+04   -0.89835E-04   -0.63378E-04   648   0.184E-03 0.255E-03
DMP:   7    -0.240150888545E+04   -0.45215E-04   -0.34085E-04   648   0.990E-04 0.137E-03
DMP:   8    -0.240150890973E+04   -0.24277E-04   -0.17476E-04   648   0.491E-04 0.737E-04
DMP:   9    -0.240150892225E+04   -0.12518E-04   -0.95290E-05   648   0.275E-04 0.388E-04
DMP:  10    -0.240150892947E+04   -0.72274E-05   -0.61477E-05   648   0.175E-04 0.254E-04
   4 F= -.24015089E+04 E0= -.24015089E+04  d E =-.120625E+00  mag=     2.0000
       N       E                     dE             d eps       ncg     rms          ort
SDA:   1    -0.239748943270E+04    0.40195E+01   -0.15867E+01   648   0.793E+01 0.000E+00
DMP:   2    -0.239888507637E+04   -0.13956E+01   -0.15784E+01   648   0.477E+01 0.602E+01
DMP:   3    -0.240015329466E+04   -0.12682E+01   -0.88859E+00   648   0.196E+01 0.478E+01
DMP:   4    -0.240080989045E+04   -0.65660E+00   -0.35404E+00   648   0.674E+00 0.211E+01
DMP:   5    -0.240105055322E+04   -0.24066E+00   -0.12378E+00   648   0.293E+00 0.628E+00
DMP:   6    -0.240112911162E+04   -0.78558E-01   -0.49216E-01   648   0.162E+00 0.162E+00
DMP:   7    -0.240115863602E+04   -0.29524E-01   -0.21027E-01   648   0.810E-01 0.465E-01
DMP:   8    -0.240117004039E+04   -0.11404E-01   -0.88715E-02   648   0.405E-01 0.734E-02
DMP:   9    -0.240117487674E+04   -0.48364E-02   -0.57925E-02   648   0.274E-01 0.306E-02
DMP:  10    -0.240117907544E+04   -0.41987E-02   -0.51328E-02   648   0.192E-01 0.125E-01
DMP:  11    -0.240118322874E+04   -0.41533E-02   -0.38097E-02   648   0.110E-01 0.156E-01
DMP:  12    -0.240118627343E+04   -0.30447E-02   -0.21840E-02   648   0.509E-02 0.112E-01
DMP:  13    -0.240118794835E+04   -0.16749E-02   -0.10207E-02   648   0.213E-02 0.572E-02
DMP:  14    -0.240118869437E+04   -0.74602E-03   -0.42427E-03   648   0.933E-03 0.229E-02
DMP:  15    -0.240118899214E+04   -0.29777E-03   -0.18222E-03   648   0.486E-03 0.819E-03
DMP:  16    -0.240118911916E+04   -0.12702E-03   -0.93838E-04   648   0.290E-03 0.345E-03
DMP:  17    -0.240118918633E+04   -0.67174E-04   -0.55903E-04   648   0.173E-03 0.205E-03
DMP:  18    -0.240118922738E+04   -0.41043E-04   -0.35301E-04   648   0.103E-03 0.142E-03
DMP:  19    -0.240118925375E+04   -0.26372E-04   -0.23281E-04   648   0.627E-04 0.103E-03
DMP:  20    -0.240118927130E+04   -0.17557E-04   -0.15943E-04   648   0.399E-04 0.767E-04
DMP:  21    -0.240118928331E+04   -0.12006E-04   -0.11289E-04   648   0.266E-04 0.574E-04
DMP:  22    -0.240118929175E+04   -0.84398E-05   -0.84649E-05   648   0.195E-04 0.439E-04
   5 F= -.24011893E+04 E0= -.24011893E+04  d E =0.319638E+00  mag=     2.0000
       N       E                     dE             d eps       ncg     rms          ort
SDA:   1    -0.239938946309E+04    0.17998E+01   -0.91097E+00   648   0.455E+01 0.000E+00
DMP:   2    -0.240019226457E+04   -0.80280E+00   -0.91242E+00   648   0.276E+01 0.347E+01
DMP:   3    -0.240092709349E+04   -0.73483E+00   -0.51836E+00   648   0.114E+01 0.279E+01
DMP:   4    -0.240131087580E+04   -0.38378E+00   -0.20625E+00   648   0.383E+00 0.125E+01
DMP:   5    -0.240145118870E+04   -0.14031E+00   -0.70074E-01   648   0.157E+00 0.373E+00
DMP:   6    -0.240149562224E+04   -0.44434E-01   -0.27159E-01   648   0.869E-01 0.942E-01
DMP:   7    -0.240151226281E+04   -0.16641E-01   -0.12467E-01   648   0.464E-01 0.307E-01
DMP:   8    -0.240151960446E+04   -0.73416E-02   -0.58930E-02   648   0.237E-01 0.112E-01
DMP:   9    -0.240152307702E+04   -0.34726E-02   -0.35298E-02   648   0.149E-01 0.533E-02
DMP:  10    -0.240152555539E+04   -0.24784E-02   -0.28883E-02   648   0.107E-01 0.718E-02
DMP:  11    -0.240152785938E+04   -0.23040E-02   -0.22544E-02   648   0.679E-02 0.863E-02
DMP:  12    -0.240152966986E+04   -0.18105E-02   -0.14058E-02   648   0.347E-02 0.685E-02
DMP:  13    -0.240153075679E+04   -0.10869E-02   -0.69398E-03   648   0.147E-02 0.385E-02
DMP:  14    -0.240153126754E+04   -0.51076E-03   -0.29004E-03   648   0.595E-03 0.165E-02
DMP:  15    -0.240153147256E+04   -0.20502E-03   -0.12043E-03   648   0.288E-03 0.606E-03
DMP:  16    -0.240153155777E+04   -0.85208E-04   -0.59851E-04   648   0.168E-03 0.254E-03
DMP:  17    -0.240153160205E+04   -0.44277E-04   -0.35294E-04   648   0.101E-03 0.146E-03
DMP:  18    -0.240153162920E+04   -0.27152E-04   -0.21661E-04   648   0.581E-04 0.966E-04
DMP:  19    -0.240153164628E+04   -0.17077E-04   -0.13467E-04   648   0.343E-04 0.636E-04
DMP:  20    -0.240153165716E+04   -0.10889E-04   -0.87059E-05   648   0.214E-04 0.425E-04
DMP:  21    -0.240153166438E+04   -0.72119E-05   -0.58509E-05   648   0.139E-04 0.295E-04
   6 F= -.24015317E+04 E0= -.24015317E+04  d E =-.227349E-01  mag=     2.0000
       N       E                     dE             d eps       ncg     rms          ort
SDA:   1    -0.240119623040E+04    0.33543E+00   -0.12996E+00   648   0.650E+00 0.000E+00
DMP:   2    -0.240131119760E+04   -0.11497E+00   -0.13090E+00   648   0.395E+00 0.500E+00
DMP:   3    -0.240141763038E+04   -0.10643E+00   -0.76692E-01   648   0.170E+00 0.410E+00
DMP:   4    -0.240147541228E+04   -0.57782E-01   -0.32681E-01   648   0.623E-01 0.195E+00
DMP:   5    -0.240149825611E+04   -0.22844E-01   -0.12039E-01   648   0.263E-01 0.653E-01
DMP:   6    -0.240150612960E+04   -0.78735E-02   -0.46876E-02   648   0.137E-01 0.187E-01
DMP:   7    -0.240150899913E+04   -0.28695E-02   -0.19106E-02   648   0.677E-02 0.535E-02
DMP:   8    -0.240151006028E+04   -0.10612E-02   -0.80019E-03   648   0.342E-02 0.111E-02
DMP:   9    -0.240151051334E+04   -0.45305E-03   -0.51455E-03   648   0.228E-02 0.557E-03
DMP:  10    -0.240151088917E+04   -0.37583E-03   -0.43851E-03   648   0.157E-02 0.120E-02
DMP:  11    -0.240151124507E+04   -0.35591E-03   -0.32485E-03   648   0.910E-03 0.137E-02
DMP:  12    -0.240151150824E+04   -0.26316E-03   -0.19558E-03   648   0.452E-03 0.101E-02
DMP:  13    -0.240151166256E+04   -0.15432E-03   -0.10130E-03   648   0.210E-03 0.570E-03
DMP:  14    -0.240151174024E+04   -0.77681E-04   -0.48470E-04   648   0.999E-04 0.274E-03
DMP:  15    -0.240151177664E+04   -0.36404E-04   -0.23208E-04   648   0.513E-04 0.125E-03
DMP:  16    -0.240151179399E+04   -0.17345E-04   -0.11774E-04   648   0.280E-04 0.593E-04
DMP:  17    -0.240151180287E+04   -0.88809E-05   -0.63832E-05   648   0.157E-04 0.312E-04
   7 F= -.24015118E+04 E0= -.24015118E+04  d E =0.198615E-01  mag=     2.0000
       N       E                     dE             d eps       ncg     rms          ort
SDA:   1    -0.240139396490E+04    0.11783E+00   -0.60540E-01   648   0.303E+00 0.000E+00
DMP:   2    -0.240144726486E+04   -0.53300E-01   -0.60811E-01   648   0.184E+00 0.230E+00
DMP:   3    -0.240149611771E+04   -0.48853E-01   -0.34229E-01   648   0.753E-01 0.185E+00
DMP:   4    -0.240152141079E+04   -0.25293E-01   -0.13370E-01   648   0.243E-01 0.819E-01
DMP:   5    -0.240153054858E+04   -0.91378E-02   -0.45492E-02   648   0.997E-02 0.246E-01
DMP:   6    -0.240153347903E+04   -0.29304E-02   -0.17871E-02   648   0.550E-02 0.661E-02
DMP:   7    -0.240153461641E+04   -0.11374E-02   -0.87006E-03   648   0.307E-02 0.247E-02
DMP:   8    -0.240153518041E+04   -0.56400E-03   -0.47974E-03   648   0.172E-02 0.131E-02
DMP:   9    -0.240153550839E+04   -0.32798E-03   -0.30979E-03   648   0.109E-02 0.890E-03
DMP:  10    -0.240153574087E+04   -0.23248E-03   -0.22852E-03   648   0.737E-03 0.780E-03
DMP:  11    -0.240153592289E+04   -0.18202E-03   -0.16233E-03   648   0.458E-03 0.680E-03
DMP:  12    -0.240153605248E+04   -0.12958E-03   -0.98613E-04   648   0.241E-03 0.486E-03
DMP:  13    -0.240153612901E+04   -0.76535E-04   -0.49945E-04   648   0.108E-03 0.273E-03
DMP:  14    -0.240153616633E+04   -0.37320E-04   -0.22094E-04   648   0.461E-04 0.124E-03
DMP:  15    -0.240153618235E+04   -0.16024E-04   -0.96055E-05   648   0.220E-04 0.500E-04
DMP:  16    -0.240153618937E+04   -0.70181E-05   -0.48895E-05   648   0.128E-04 0.223E-04
   8 F= -.24015362E+04 E0= -.24015362E+04  d E =-.452499E-02  mag=     2.0000
       N       E                     dE             d eps       ncg     rms          ort
SDA:   1    -0.240153572940E+04    0.45296E-03   -0.19452E-03   648   0.973E-03 0.000E+00
DMP:   2    -0.240153590159E+04   -0.17220E-03   -0.19844E-03   648   0.603E-03 0.750E-03
DMP:   3    -0.240153606263E+04   -0.16104E-03   -0.11486E-03   648   0.253E-03 0.619E-03
DMP:   4    -0.240153614891E+04   -0.86281E-04   -0.46581E-04   648   0.827E-04 0.289E-03
DMP:   5    -0.240153618168E+04   -0.32768E-04   -0.16648E-04   648   0.338E-04 0.953E-04
DMP:   6    -0.240153619303E+04   -0.11355E-04   -0.70905E-05   648   0.195E-04 0.306E-04
DMP:   7    -0.240153619809E+04   -0.50503E-05   -0.40348E-05   648   0.122E-04 0.153E-04
   9 F= -.24015362E+04 E0= -.24015362E+04  d E =-.453371E-02  mag=     2.0000
       N       E                     dE             d eps       ncg     rms          ort
SDA:   1    -0.240153605244E+04    0.14059E-03   -0.39883E-04   648   0.199E-03 0.000E+00
DMP:   2    -0.240153608785E+04   -0.35402E-04   -0.40592E-04   648   0.123E-03 0.155E-03
DMP:   3    -0.240153612111E+04   -0.33263E-04   -0.24227E-04   648   0.536E-04 0.130E-03
DMP:   4    -0.240153613986E+04   -0.18751E-04   -0.11095E-04   648   0.208E-04 0.667E-04
DMP:   5    -0.240153614827E+04   -0.84140E-05   -0.50318E-05   648   0.101E-04 0.289E-04
  10 F= -.24015361E+04 E0= -.24015361E+04  d E =-.448390E-02  mag=     2.0000
       N       E                     dE             d eps       ncg     rms          ort
SDA:   1    -0.240153615317E+04   -0.13309E-04   -0.16640E-04   648   0.832E-04 0.000E+00
DMP:   2    -0.240153616777E+04   -0.14605E-04   -0.15647E-04   648   0.456E-04 0.629E-04
DMP:   3    -0.240153618039E+04   -0.12612E-04   -0.85079E-05   648   0.176E-04 0.479E-04
DMP:   4    -0.240153618680E+04   -0.64161E-05   -0.36006E-05   648   0.675E-05 0.217E-04
  11 F= -.24015362E+04 E0= -.24015362E+04  d E =-.452242E-02  mag=     2.0000
       N       E                     dE             d eps       ncg     rms          ort
SDA:   1    -0.240153617309E+04    0.72924E-05   -0.27183E-05   648   0.136E-04 0.000E+00
DMP:   2    -0.240153617542E+04   -0.23248E-05   -0.23836E-05   648   0.689E-05 0.968E-05
  12 F= -.24015362E+04 E0= -.24015362E+04  d E =-.451104E-02  mag=     2.0000
       N       E                     dE             d eps       ncg     rms          ort
SDA:   1    -0.240153618691E+04   -0.13815E-04   -0.66350E-06   648   0.332E-05 0.000E+00
DMP:   2    -0.240153618751E+04   -0.60308E-06   -0.69313E-06   648   0.206E-05 0.271E-05
  13 F= -.24015362E+04 E0= -.24015362E+04  d E =-.452313E-02  mag=     2.0000
       N       E                     dE             d eps       ncg     rms          ort
SDA:   1    -0.240151385557E+04    0.22331E-01   -0.90372E-02   648   0.452E-01 0.000E+00
DMP:   2    -0.240152188498E+04   -0.80294E-02   -0.92588E-02   648   0.281E-01 0.351E-01
DMP:   3    -0.240152946308E+04   -0.75781E-02   -0.55288E-02   648   0.123E-01 0.295E-01
DMP:   4    -0.240153366528E+04   -0.42022E-02   -0.23768E-02   648   0.441E-02 0.144E-01
DMP:   5    -0.240153534815E+04   -0.16829E-02   -0.86931E-03   648   0.177E-02 0.496E-02
DMP:   6    -0.240153592947E+04   -0.58133E-03   -0.34114E-03   648   0.939E-03 0.147E-02
DMP:   7    -0.240153615228E+04   -0.22280E-03   -0.15901E-03   648   0.521E-03 0.528E-03
DMP:   8    -0.240153625699E+04   -0.10472E-03   -0.83919E-04   648   0.287E-03 0.255E-03
DMP:   9    -0.240153631532E+04   -0.58328E-04   -0.51816E-04   648   0.173E-03 0.166E-03
DMP:  10    -0.240153635483E+04   -0.39511E-04   -0.36208E-04   648   0.110E-03 0.137E-03
DMP:  11    -0.240153638407E+04   -0.29241E-04   -0.24697E-04   648   0.652E-04 0.112E-03
DMP:  12    -0.240153640419E+04   -0.20115E-04   -0.15118E-04   648   0.349E-04 0.782E-04
DMP:  13    -0.240153641634E+04   -0.12148E-04   -0.82804E-05   648   0.173E-04 0.463E-04
DMP:  14    -0.240153642288E+04   -0.65440E-05   -0.42302E-05   648   0.848E-05 0.244E-04
  14 F= -.24015364E+04 E0= -.24015364E+04  d E =-.235368E-03  mag=     2.0000
       N       E                     dE             d eps       ncg     rms          ort
SDA:   1    -0.240153354135E+04    0.28750E-02   -0.14395E-02   648   0.720E-02 0.000E+00
DMP:   2    -0.240153482019E+04   -0.12788E-02   -0.14730E-02   648   0.446E-02 0.559E-02
DMP:   3    -0.240153602553E+04   -0.12053E-02   -0.87166E-03   648   0.192E-02 0.469E-02
DMP:   4    -0.240153668975E+04   -0.66422E-03   -0.37025E-03   648   0.663E-03 0.229E-02
DMP:   5    -0.240153695541E+04   -0.26566E-03   -0.13799E-03   648   0.270E-03 0.807E-03
DMP:   6    -0.240153705119E+04   -0.95780E-04   -0.57731E-04   648   0.149E-03 0.269E-03
DMP:   7    -0.240153709179E+04   -0.40601E-04   -0.29529E-04   648   0.862E-04 0.118E-03
DMP:   8    -0.240153711326E+04   -0.21476E-04   -0.16736E-04   648   0.484E-04 0.678E-04
DMP:   9    -0.240153712588E+04   -0.12615E-04   -0.10098E-04   648   0.282E-04 0.430E-04
DMP:  10    -0.240153713382E+04   -0.79360E-05   -0.65062E-05   648   0.174E-04 0.292E-04
  15 F= -.24015371E+04 E0= -.24015371E+04  d E =-.946304E-03  mag=     2.0000
       N       E                     dE             d eps       ncg     rms          ort
SDA:   1    -0.240153556712E+04    0.15588E-02   -0.58854E-03   648   0.294E-02 0.000E+00
DMP:   2    -0.240153608865E+04   -0.52152E-03   -0.59470E-03   648   0.179E-02 0.227E-02
DMP:   3    -0.240153657334E+04   -0.48469E-03   -0.34612E-03   648   0.757E-03 0.187E-02
DMP:   4    -0.240153683624E+04   -0.26290E-03   -0.14680E-03   648   0.267E-03 0.900E-03
DMP:   5    -0.240153694225E+04   -0.10601E-03   -0.57902E-04   648   0.120E-03 0.327E-03
DMP:   6    -0.240153698379E+04   -0.41543E-04   -0.27109E-04   648   0.697E-04 0.127E-03
DMP:   7    -0.240153700389E+04   -0.20103E-04   -0.14874E-04   648   0.400E-04 0.661E-04
DMP:   8    -0.240153701519E+04   -0.11294E-04   -0.83981E-05   648   0.217E-04 0.390E-04
DMP:   9    -0.240153702167E+04   -0.64837E-05   -0.48558E-05   648   0.123E-04 0.232E-04
  16 F= -.24015370E+04 E0= -.24015370E+04  d E =-.834158E-03  mag=     2.0000
       N       E                     dE             d eps       ncg     rms          ort
SDA:   1    -0.240153521468E+04    0.18005E-02   -0.74062E-03   648   0.370E-02 0.000E+00
DMP:   2    -0.240153588057E+04   -0.66589E-03   -0.78422E-03   648   0.239E-02 0.296E-02
DMP:   3    -0.240153653642E+04   -0.65585E-03   -0.49839E-03   648   0.112E-02 0.264E-02
DMP:   4    -0.240153692759E+04   -0.39117E-03   -0.23115E-03   648   0.418E-03 0.142E-02
DMP:   5    -0.240153709857E+04   -0.17098E-03   -0.88879E-04   648   0.157E-03 0.554E-03
DMP:   6    -0.240153716132E+04   -0.62749E-04   -0.34709E-04   648   0.784E-04 0.183E-03
DMP:   7    -0.240153718582E+04   -0.24505E-04   -0.17099E-04   648   0.483E-04 0.716E-04
DMP:   8    -0.240153719857E+04   -0.12750E-04   -0.10290E-04   648   0.296E-04 0.421E-04
DMP:   9    -0.240153720664E+04   -0.80658E-05   -0.64889E-05   648   0.172E-04 0.293E-04
  17 F= -.24015372E+04 E0= -.24015372E+04  d E =-.184969E-03  mag=     2.0000
       N       E                     dE             d eps       ncg     rms          ort
SDA:   1    -0.240153713810E+04    0.60472E-04   -0.32924E-04   648   0.165E-03 0.000E+00
DMP:   2    -0.240153716779E+04   -0.29694E-04   -0.34827E-04   648   0.105E-03 0.132E-03
DMP:   3    -0.240153719711E+04   -0.29320E-04   -0.22243E-04   648   0.493E-04 0.119E-03
DMP:   4    -0.240153721482E+04   -0.17702E-04   -0.10610E-04   648   0.188E-04 0.660E-04
DMP:   5    -0.240153722291E+04   -0.80932E-05   -0.44107E-05   648   0.752E-05 0.280E-04
  18 F= -.24015372E+04 E0= -.24015372E+04  d E =-.201239E-03  mag=     2.0000
       N       E                     dE             d eps       ncg     rms          ort
SDA:   1    -0.240153700998E+04    0.20483E-03   -0.67685E-04   648   0.338E-03 0.000E+00
DMP:   2    -0.240153707118E+04   -0.61193E-04   -0.72683E-04   648   0.221E-03 0.274E-03
DMP:   3    -0.240153713263E+04   -0.61457E-04   -0.47632E-04   648   0.108E-03 0.251E-03
DMP:   4    -0.240153717074E+04   -0.38109E-04   -0.23257E-04   648   0.419E-04 0.143E-03
DMP:   5    -0.240153718853E+04   -0.17791E-04   -0.96458E-05   648   0.161E-04 0.618E-04
DMP:   6    -0.240153719574E+04   -0.72021E-05   -0.40520E-05   648   0.785E-05 0.239E-04
  19 F= -.24015372E+04 E0= -.24015372E+04  d E =-.174067E-03  mag=     2.0000
       N       E                     dE             d eps       ncg     rms          ort
SDA:   1    -0.240153655379E+04    0.63474E-03   -0.21630E-03   648   0.108E-02 0.000E+00
DMP:   2    -0.240153674860E+04   -0.19481E-03   -0.23061E-03   648   0.703E-03 0.867E-03
DMP:   3    -0.240153694201E+04   -0.19341E-03   -0.14782E-03   648   0.333E-03 0.781E-03
DMP:   4    -0.240153705854E+04   -0.11653E-03   -0.68977E-04   648   0.123E-03 0.426E-03
DMP:   5    -0.240153711001E+04   -0.51467E-04   -0.26905E-04   648   0.462E-04 0.170E-03
DMP:   6    -0.240153712931E+04   -0.19300E-04   -0.10667E-04   648   0.229E-04 0.586E-04
DMP:   7    -0.240153713699E+04   -0.76827E-05   -0.52305E-05   648   0.139E-04 0.236E-04
  20 F= -.24015371E+04 E0= -.24015371E+04  d E =0.587466E-04  mag=     2.0000
       N       E                     dE             d eps       ncg     rms          ort
SDA:   1    -0.240153695703E+04    0.17228E-03   -0.89439E-04   648   0.447E-03 0.000E+00
DMP:   2    -0.240153703745E+04   -0.80419E-04   -0.93560E-04   648   0.282E-03 0.357E-03
DMP:   3    -0.240153711584E+04   -0.78393E-04   -0.59024E-04   648   0.131E-03 0.316E-03
DMP:   4    -0.240153716252E+04   -0.46674E-04   -0.27739E-04   648   0.495E-04 0.172E-03
DMP:   5    -0.240153718352E+04   -0.21002E-04   -0.11482E-04   648   0.203E-04 0.714E-04
DMP:   6    -0.240153719206E+04   -0.85370E-05   -0.50389E-05   648   0.107E-04 0.280E-04
  21 F= -.24015372E+04 E0= -.24015372E+04  d E =0.368012E-05  mag=     2.0000
