q-position: [    0.0000000,    0.0000000,    0.0000000 ]
point_group: 3m
transformation_matrix:
- [  0.6666667, -0.3333333, -0.3333333 ]
- [  0.3333333,  0.3333333, -0.6666667 ]
- [  0.3333333,  0.3333333,  0.3333333 ]
rotations:
- matrix:
  - [  1,  0,  0 ]
  - [  0,  1,  0 ]
  - [  0,  0,  1 ]
  symbol: E
- matrix:
  - [  0, -1,  0 ]
  - [  1, -1,  0 ]
  - [  0,  0,  1 ]
  symbol: C3
- matrix:
  - [ -1,  1,  0 ]
  - [ -1,  0,  0 ]
  - [  0,  0,  1 ]
  symbol: C3
- matrix:
  - [  0, -1,  0 ]
  - [ -1,  0,  0 ]
  - [  0,  0,  1 ]
  symbol: sgv
- matrix:
  - [ -1,  1,  0 ]
  - [  0,  1,  0 ]
  - [  0,  0,  1 ]
  symbol: sgv
- matrix:
  - [  1,  0,  0 ]
  - [  1, -1,  0 ]
  - [  0,  0,  1 ]
  symbol: sgv
normal_modes:
- band_indices: [ 1, 2 ]
  frequency: -0.1094406218  
  ir_label: E
  characters: [ [  2,   0.0 ], [  1, 180.0 ], [  1, 180.0 ], [  0,   0.0 ], [  0,   0.0 ], [  0,   0.0 ] ]
- band_indices: [ 3 ]
  frequency: -0.0831344222  
  ir_label: A1
  characters: [ [  1,   0.0 ], [  1,   0.0 ], [  1,   0.0 ], [  1,   0.0 ], [  1,   0.0 ], [  1,   0.0 ] ]
- band_indices: [ 4, 5 ]
  frequency: 10.5499259148  
  ir_label: E
  characters: [ [  2,   0.0 ], [  1, 180.0 ], [  1, 180.0 ], [  0,   0.0 ], [  0,   0.0 ], [  0,   0.0 ] ]
- band_indices: [ 6 ]
  frequency: 10.6650035040  
  ir_label: A1
  characters: [ [  1,   0.0 ], [  1,   0.0 ], [  1,   0.0 ], [  1,   0.0 ], [  1,   0.0 ], [  1,   0.0 ] ]
- band_indices: [ 7, 8 ]
  frequency: 10.9809755742  
  ir_label: E
  characters: [ [  2,   0.0 ], [  1, 180.0 ], [  1, 180.0 ], [  0, 180.0 ], [  0, 180.0 ], [  0,   0.0 ] ]
- band_indices: [ 9 ]
  frequency: 10.9949173342  
  ir_label: A2
  characters: [ [  1,   0.0 ], [  1,   0.0 ], [  1,   0.0 ], [  1, 180.0 ], [  1, 180.0 ], [  1, 180.0 ] ]
- band_indices: [ 10 ]
  frequency: 11.0225362167  
  ir_label: A2
  characters: [ [  1,   0.0 ], [  1,   0.0 ], [  1,   0.0 ], [  1, 180.0 ], [  1, 180.0 ], [  1, 180.0 ] ]
- band_indices: [ 11, 12 ]
  frequency: 11.0529734690  
  ir_label: E
  characters: [ [  2,   0.0 ], [  1, 180.0 ], [  1, 180.0 ], [  0, 180.0 ], [  0, 180.0 ], [  0, 180.0 ] ]
- band_indices: [ 13, 14 ]
  frequency: 11.0973404942  
  ir_label: E
  characters: [ [  2,   0.0 ], [  1, 180.0 ], [  1, 180.0 ], [  0,   0.0 ], [  0,   0.0 ], [  0, 180.0 ] ]
- band_indices: [ 15 ]
  frequency: 11.1291730699  
  ir_label: A1
  characters: [ [  1,   0.0 ], [  1,   0.0 ], [  1,   0.0 ], [  1,   0.0 ], [  1,   0.0 ], [  1,   0.0 ] ]
- band_indices: [ 16, 17 ]
  frequency: 12.4767128078  
  ir_label: E
  characters: [ [  2,   0.0 ], [  1, 180.0 ], [  1, 180.0 ], [  0, 180.0 ], [  0, 180.0 ], [  0, 180.0 ] ]
- band_indices: [ 18, 19 ]
  frequency: 13.4613744006  
  ir_label: E
  characters: [ [  2,   0.0 ], [  1, 180.0 ], [  1, 180.0 ], [  0,   0.0 ], [  0,   0.0 ], [  0, 180.0 ] ]
- band_indices: [ 20, 21 ]
  frequency: 13.5152600251  
  ir_label: E
  characters: [ [  2,   0.0 ], [  1, 180.0 ], [  1, 180.0 ], [  0, 180.0 ], [  0, 180.0 ], [  0, 180.0 ] ]
- band_indices: [ 22 ]
  frequency: 13.5186564661  
  ir_label: A2
  characters: [ [  1,   0.0 ], [  1,   0.0 ], [  1,   0.0 ], [  1, 180.0 ], [  1, 180.0 ], [  1, 180.0 ] ]
- band_indices: [ 23 ]
  frequency: 13.5446370190  
  ir_label: A2
  characters: [ [  1,   0.0 ], [  1,   0.0 ], [  1,   0.0 ], [  1, 180.0 ], [  1, 180.0 ], [  1, 180.0 ] ]
- band_indices: [ 24, 25 ]
  frequency: 13.5788711993  
  ir_label: E
  characters: [ [  2,   0.0 ], [  1, 180.0 ], [  1, 180.0 ], [  0, 180.0 ], [  0, 180.0 ], [  0, 180.0 ] ]
- band_indices: [ 26 ]
  frequency: 13.5880269229  
  ir_label: A1
  characters: [ [  1,   0.0 ], [  1,   0.0 ], [  1,   0.0 ], [  1,   0.0 ], [  1,   0.0 ], [  1,   0.0 ] ]
- band_indices: [ 27 ]
  frequency: 13.6001914443  
  ir_label: A2
  characters: [ [  1,   0.0 ], [  1,   0.0 ], [  1,   0.0 ], [  1, 180.0 ], [  1, 180.0 ], [  1, 180.0 ] ]
- band_indices: [ 28, 29 ]
  frequency: 14.0918073666  
  ir_label: E
  characters: [ [  2,   0.0 ], [  1, 180.0 ], [  1, 180.0 ], [  0, 180.0 ], [  0, 180.0 ], [  0,   0.0 ] ]
- band_indices: [ 30, 31 ]
  frequency: 14.1074937877  
  ir_label: E
  characters: [ [  2,   0.0 ], [  1, 180.0 ], [  1, 180.0 ], [  0,   0.0 ], [  0,   0.0 ], [  0,   0.0 ] ]
- band_indices: [ 32 ]
  frequency: 14.1362526427  
  ir_label: A2
  characters: [ [  1,   0.0 ], [  1,   0.0 ], [  1,   0.0 ], [  1, 180.0 ], [  1, 180.0 ], [  1, 180.0 ] ]
- band_indices: [ 33 ]
  frequency: 14.1456004788  
  ir_label: A1
  characters: [ [  1,   0.0 ], [  1,   0.0 ], [  1,   0.0 ], [  1,   0.0 ], [  1,   0.0 ], [  1,   0.0 ] ]
- band_indices: [ 34, 35 ]
  frequency: 14.2597938745  
  ir_label: E
  characters: [ [  2,   0.0 ], [  1, 180.0 ], [  1, 180.0 ], [  0, 180.0 ], [  0, 180.0 ], [  0, 180.0 ] ]
- band_indices: [ 36 ]
  frequency: 14.3548366258  
  ir_label: A1
  characters: [ [  1,   0.0 ], [  1,   0.0 ], [  1,   0.0 ], [  1,   0.0 ], [  1,   0.0 ], [  1,   0.0 ] ]
- band_indices: [ 37 ]
  frequency: 14.3597378787  
  ir_label: A2
  characters: [ [  1,   0.0 ], [  1,   0.0 ], [  1,   0.0 ], [  1, 180.0 ], [  1, 180.0 ], [  1, 180.0 ] ]
- band_indices: [ 38, 39 ]
  frequency: 14.3608569104  
  ir_label: E
  characters: [ [  2,   0.0 ], [  1, 180.0 ], [  1, 180.0 ], [  0, 180.0 ], [  0, 180.0 ], [  0, 180.0 ] ]
- band_indices: [ 40, 41 ]
  frequency: 14.3769807899  
  ir_label: E
  characters: [ [  2,   0.0 ], [  1, 180.0 ], [  1, 180.0 ], [  0, 180.0 ], [  0, 180.0 ], [  0,   0.0 ] ]
- band_indices: [ 42, 43 ]
  frequency: 14.4208654464  
  ir_label: E
  characters: [ [  2,   0.0 ], [  1, 180.0 ], [  1, 180.0 ], [  0, 180.0 ], [  0, 180.0 ], [  0,   0.0 ] ]
- band_indices: [ 44 ]
  frequency: 15.0667928303  
  ir_label: A1
  characters: [ [  1,   0.0 ], [  1,   0.0 ], [  1,   0.0 ], [  1,   0.0 ], [  1,   0.0 ], [  1,   0.0 ] ]
- band_indices: [ 45, 46 ]
  frequency: 15.2977242785  
  ir_label: E
  characters: [ [  2,   0.0 ], [  1, 180.0 ], [  1, 180.0 ], [  0,   0.0 ], [  0,   0.0 ], [  0,   0.0 ] ]
- band_indices: [ 47 ]
  frequency: 15.4038139320  
  ir_label: A1
  characters: [ [  1,   0.0 ], [  1,   0.0 ], [  1,   0.0 ], [  1,   0.0 ], [  1,   0.0 ], [  1,   0.0 ] ]
- band_indices: [ 48, 49 ]
  frequency: 15.4744992092  
  ir_label: E
  characters: [ [  2,   0.0 ], [  1, 180.0 ], [  1, 180.0 ], [  0,   0.0 ], [  0,   0.0 ], [  0,   0.0 ] ]
- band_indices: [ 50, 51 ]
  frequency: 15.7011053108  
  ir_label: E
  characters: [ [  2,   0.0 ], [  1, 180.0 ], [  1, 180.0 ], [  0,   0.0 ], [  0,   0.0 ], [  0, 180.0 ] ]
- band_indices: [ 52 ]
  frequency: 15.7211547346  
  ir_label: A1
  characters: [ [  1,   0.0 ], [  1,   0.0 ], [  1,   0.0 ], [  1,   0.0 ], [  1,   0.0 ], [  1,   0.0 ] ]
- band_indices: [ 53 ]
  frequency: 15.9444915455  
  ir_label: A2
  characters: [ [  1,   0.0 ], [  1,   0.0 ], [  1,   0.0 ], [  1, 180.0 ], [  1, 180.0 ], [  1, 180.0 ] ]
- band_indices: [ 54 ]
  frequency: 15.9490422603  
  ir_label: A1
  characters: [ [  1,   0.0 ], [  1,   0.0 ], [  1,   0.0 ], [  1,   0.0 ], [  1,   0.0 ], [  1,   0.0 ] ]
- band_indices: [ 55, 56 ]
  frequency: 15.9550002303  
  ir_label: E
  characters: [ [  2,   0.0 ], [  1, 180.0 ], [  1, 180.0 ], [  0,   0.0 ], [  0,   0.0 ], [  0,   0.0 ] ]
- band_indices: [ 57, 58 ]
  frequency: 15.9612634731  
  ir_label: E
  characters: [ [  2,   0.0 ], [  1, 180.0 ], [  1, 180.0 ], [  0,   0.0 ], [  0,   0.0 ], [  0,   0.0 ] ]
- band_indices: [ 59, 60 ]
  frequency: 16.0411994655  
  ir_label: E
  characters: [ [  2,   0.0 ], [  1, 180.0 ], [  1, 180.0 ], [  0,   0.0 ], [  0,   0.0 ], [  0, 180.0 ] ]
- band_indices: [ 61 ]
  frequency: 16.0882028209  
  ir_label: A1
  characters: [ [  1,   0.0 ], [  1,   0.0 ], [  1,   0.0 ], [  1,   0.0 ], [  1,   0.0 ], [  1,   0.0 ] ]
- band_indices: [ 62, 63 ]
  frequency: 17.4938351572  
  ir_label: E
  characters: [ [  2,   0.0 ], [  1, 180.0 ], [  1, 180.0 ], [  0,   0.0 ], [  0,   0.0 ], [  0,   0.0 ] ]
- band_indices: [ 64 ]
  frequency: 17.5224997104  
  ir_label: A1
  characters: [ [  1,   0.0 ], [  1,   0.0 ], [  1,   0.0 ], [  1,   0.0 ], [  1,   0.0 ], [  1,   0.0 ] ]
- band_indices: [ 65, 66 ]
  frequency: 17.8302337488  
  ir_label: E
  characters: [ [  2,   0.0 ], [  1, 180.0 ], [  1, 180.0 ], [  0,   0.0 ], [  0,   0.0 ], [  0, 180.0 ] ]
- band_indices: [ 67 ]
  frequency: 17.9369884008  
  ir_label: A2
  characters: [ [  1,   0.0 ], [  1,   0.0 ], [  1,   0.0 ], [  1, 180.0 ], [  1, 180.0 ], [  1, 180.0 ] ]
- band_indices: [ 68, 69 ]
  frequency: 18.1563472988  
  ir_label: E
  characters: [ [  2,   0.0 ], [  1, 180.0 ], [  1, 180.0 ], [  0,   0.0 ], [  0,   0.0 ], [  0,   0.0 ] ]
- band_indices: [ 70 ]
  frequency: 18.1891183507  
  ir_label: A1
  characters: [ [  1,   0.0 ], [  1,   0.0 ], [  1,   0.0 ], [  1,   0.0 ], [  1,   0.0 ], [  1,   0.0 ] ]
- band_indices: [ 71, 72 ]
  frequency: 18.3474130717  
  ir_label: E
  characters: [ [  2,   0.0 ], [  1, 180.0 ], [  1, 180.0 ], [  0, 180.0 ], [  0, 180.0 ], [  0,   0.0 ] ]
- band_indices: [ 73, 74 ]
  frequency: 18.3719430807  
  ir_label: E
  characters: [ [  2,   0.0 ], [  1, 180.0 ], [  1, 180.0 ], [  0, 180.0 ], [  0, 180.0 ], [  0, 180.0 ] ]
- band_indices: [ 75 ]
  frequency: 18.3728764745  
  ir_label: A2
  characters: [ [  1,   0.0 ], [  1,   0.0 ], [  1,   0.0 ], [  1, 180.0 ], [  1, 180.0 ], [  1, 180.0 ] ]
- band_indices: [ 76 ]
  frequency: 18.3944065299  
  ir_label: A2
  characters: [ [  1,   0.0 ], [  1,   0.0 ], [  1,   0.0 ], [  1, 180.0 ], [  1, 180.0 ], [  1, 180.0 ] ]
- band_indices: [ 77, 78 ]
  frequency: 18.4204339329  
  ir_label: E
  characters: [ [  2,   0.0 ], [  1, 180.0 ], [  1, 180.0 ], [  0, 180.0 ], [  0, 180.0 ], [  0,   0.0 ] ]
- band_indices: [ 79 ]
  frequency: 18.4363583923  
  ir_label: A2
  characters: [ [  1,   0.0 ], [  1,   0.0 ], [  1,   0.0 ], [  1, 180.0 ], [  1, 180.0 ], [  1, 180.0 ] ]
- band_indices: [ 80, 81 ]
  frequency: 18.4427651105  
  ir_label: E
  characters: [ [  2,   0.0 ], [  1, 180.0 ], [  1, 180.0 ], [  0,   0.0 ], [  0,   0.0 ], [  0,   0.0 ] ]
- band_indices: [ 82 ]
  frequency: 18.4436080091  
  ir_label: A1
  characters: [ [  1,   0.0 ], [  1,   0.0 ], [  1,   0.0 ], [  1,   0.0 ], [  1,   0.0 ], [  1,   0.0 ] ]
- band_indices: [ 83 ]
  frequency: 18.4519434276  
  ir_label: A2
  characters: [ [  1,   0.0 ], [  1,   0.0 ], [  1,   0.0 ], [  1, 180.0 ], [  1, 180.0 ], [  1, 180.0 ] ]
- band_indices: [ 84 ]
  frequency: 18.4626629077  
  ir_label: A2
  characters: [ [  1,   0.0 ], [  1,   0.0 ], [  1,   0.0 ], [  1, 180.0 ], [  1, 180.0 ], [  1, 180.0 ] ]
- band_indices: [ 85, 86 ]
  frequency: 18.4738443560  
  ir_label: E
  characters: [ [  2,   0.0 ], [  1, 180.0 ], [  1, 180.0 ], [  0, 180.0 ], [  0, 180.0 ], [  0,   0.0 ] ]
- band_indices: [ 87, 88 ]
  frequency: 19.0409498023  
  ir_label: E
  characters: [ [  2,   0.0 ], [  1, 180.0 ], [  1, 180.0 ], [  0,   0.0 ], [  0,   0.0 ], [  0,   0.0 ] ]
- band_indices: [ 89 ]
  frequency: 19.1342475273  
  ir_label: A1
  characters: [ [  1,   0.0 ], [  1,   0.0 ], [  1,   0.0 ], [  1,   0.0 ], [  1,   0.0 ], [  1,   0.0 ] ]
- band_indices: [ 90, 91 ]
  frequency: 19.4167537410  
  ir_label: E
  characters: [ [  2,   0.0 ], [  1, 180.0 ], [  1, 180.0 ], [  0, 180.0 ], [  0, 180.0 ], [  0, 180.0 ] ]
- band_indices: [ 92 ]
  frequency: 19.4714548787  
  ir_label: A2
  characters: [ [  1,   0.0 ], [  1,   0.0 ], [  1,   0.0 ], [  1, 180.0 ], [  1, 180.0 ], [  1, 180.0 ] ]
- band_indices: [ 93 ]
  frequency: 19.5174470528  
  ir_label: A2
  characters: [ [  1,   0.0 ], [  1,   0.0 ], [  1,   0.0 ], [  1, 180.0 ], [  1, 180.0 ], [  1, 180.0 ] ]
- band_indices: [ 94, 95 ]
  frequency: 19.5442252150  
  ir_label: E
  characters: [ [  2,   0.0 ], [  1, 180.0 ], [  1, 180.0 ], [  0,   0.0 ], [  0,   0.0 ], [  0,   0.0 ] ]
- band_indices: [ 96 ]
  frequency: 19.5468930092  
  ir_label: A1
  characters: [ [  1,   0.0 ], [  1,   0.0 ], [  1,   0.0 ], [  1,   0.0 ], [  1,   0.0 ], [  1,   0.0 ] ]
- band_indices: [ 97, 98 ]
  frequency: 19.5685738538  
  ir_label: E
  characters: [ [  2,   0.0 ], [  1, 180.0 ], [  1, 180.0 ], [  0,   0.0 ], [  0,   0.0 ], [  0, 180.0 ] ]
- band_indices: [ 99, 100 ]
  frequency: 19.7056324439  
  ir_label: E
  characters: [ [  2,   0.0 ], [  1, 180.0 ], [  1, 180.0 ], [  0,   0.0 ], [  0,   0.0 ], [  0,   0.0 ] ]
- band_indices: [ 101, 102 ]
  frequency: 19.9779834158  
  ir_label: E
  characters: [ [  2,   0.0 ], [  1, 180.0 ], [  1, 180.0 ], [  0,   0.0 ], [  0,   0.0 ], [  0, 180.0 ] ]
- band_indices: [ 103 ]
  frequency: 20.0162308758  
  ir_label: A1
  characters: [ [  1,   0.0 ], [  1,   0.0 ], [  1,   0.0 ], [  1,   0.0 ], [  1,   0.0 ], [  1,   0.0 ] ]
- band_indices: [ 104, 105 ]
  frequency: 20.3187934576  
  ir_label: E
  characters: [ [  2,   0.0 ], [  1, 180.0 ], [  1, 180.0 ], [  0, 180.0 ], [  0, 180.0 ], [  0,   0.0 ] ]
- band_indices: [ 106 ]
  frequency: 20.3430097896  
  ir_label: A2
  characters: [ [  1,   0.0 ], [  1,   0.0 ], [  1,   0.0 ], [  1, 180.0 ], [  1, 180.0 ], [  1, 180.0 ] ]
- band_indices: [ 107 ]
  frequency: 20.4074509651  
  ir_label: A1
  characters: [ [  1,   0.0 ], [  1,   0.0 ], [  1,   0.0 ], [  1,   0.0 ], [  1,   0.0 ], [  1,   0.0 ] ]
- band_indices: [ 108, 109 ]
  frequency: 20.4080668482  
  ir_label: E
  characters: [ [  2,   0.0 ], [  1, 180.0 ], [  1, 180.0 ], [  0,   0.0 ], [  0,   0.0 ], [  0,   0.0 ] ]
- band_indices: [ 110, 111 ]
  frequency: 20.4499205391  
  ir_label: E
  characters: [ [  2,   0.0 ], [  1, 180.0 ], [  1, 180.0 ], [  0,   0.0 ], [  0,   0.0 ], [  0, 180.0 ] ]
- band_indices: [ 112, 113 ]
  frequency: 20.4565446050  
  ir_label: E
  characters: [ [  2,   0.0 ], [  1, 180.0 ], [  1, 180.0 ], [  0,   0.0 ], [  0,   0.0 ], [  0,   0.0 ] ]
- band_indices: [ 114 ]
  frequency: 20.5197326936  
  ir_label: A1
  characters: [ [  1,   0.0 ], [  1,   0.0 ], [  1,   0.0 ], [  1,   0.0 ], [  1,   0.0 ], [  1,   0.0 ] ]
- band_indices: [ 115, 116 ]
  frequency: 20.6966663431  
  ir_label: E
  characters: [ [  2,   0.0 ], [  1, 180.0 ], [  1, 180.0 ], [  0, 180.0 ], [  0, 180.0 ], [  0,   0.0 ] ]
- band_indices: [ 117 ]
  frequency: 20.7091376266  
  ir_label: A1
  characters: [ [  1,   0.0 ], [  1,   0.0 ], [  1,   0.0 ], [  1,   0.0 ], [  1,   0.0 ], [  1,   0.0 ] ]
- band_indices: [ 118 ]
  frequency: 20.7172839238  
  ir_label: A2
  characters: [ [  1,   0.0 ], [  1,   0.0 ], [  1,   0.0 ], [  1, 180.0 ], [  1, 180.0 ], [  1, 180.0 ] ]
- band_indices: [ 119 ]
  frequency: 20.7588008387  
  ir_label: A2
  characters: [ [  1,   0.0 ], [  1,   0.0 ], [  1,   0.0 ], [  1, 180.0 ], [  1, 180.0 ], [  1, 180.0 ] ]
- band_indices: [ 120, 121 ]
  frequency: 20.7681583614  
  ir_label: E
  characters: [ [  2,   0.0 ], [  1, 180.0 ], [  1, 180.0 ], [  0, 180.0 ], [  0, 180.0 ], [  0, 180.0 ] ]
- band_indices: [ 122, 123 ]
  frequency: 20.7901535433  
  ir_label: E
  characters: [ [  2,   0.0 ], [  1, 180.0 ], [  1, 180.0 ], [  0,   0.0 ], [  0,   0.0 ], [  0, 180.0 ] ]
- band_indices: [ 124 ]
  frequency: 20.8016258112  
  ir_label: A1
  characters: [ [  1,   0.0 ], [  1,   0.0 ], [  1,   0.0 ], [  1,   0.0 ], [  1,   0.0 ], [  1,   0.0 ] ]
- band_indices: [ 125 ]
  frequency: 20.8192878436  
  ir_label: A2
  characters: [ [  1,   0.0 ], [  1,   0.0 ], [  1,   0.0 ], [  1, 180.0 ], [  1, 180.0 ], [  1, 180.0 ] ]
- band_indices: [ 126, 127 ]
  frequency: 20.8295053759  
  ir_label: E
  characters: [ [  2,   0.0 ], [  1, 180.0 ], [  1, 180.0 ], [  0,   0.0 ], [  0,   0.0 ], [  0,   0.0 ] ]
- band_indices: [ 128 ]
  frequency: 20.8386800404  
  ir_label: A1
  characters: [ [  1,   0.0 ], [  1,   0.0 ], [  1,   0.0 ], [  1,   0.0 ], [  1,   0.0 ], [  1,   0.0 ] ]
- band_indices: [ 129 ]
  frequency: 20.8464726261  
  ir_label: A2
  characters: [ [  1,   0.0 ], [  1,   0.0 ], [  1,   0.0 ], [  1, 180.0 ], [  1, 180.0 ], [  1, 180.0 ] ]
- band_indices: [ 130, 131 ]
  frequency: 20.8544773870  
  ir_label: E
  characters: [ [  2,   0.0 ], [  1, 180.0 ], [  1, 180.0 ], [  0, 180.0 ], [  0, 180.0 ], [  0,   0.0 ] ]
- band_indices: [ 132, 133 ]
  frequency: 20.8613274356  
  ir_label: E
  characters: [ [  2,   0.0 ], [  1, 180.0 ], [  1, 180.0 ], [  0,   0.0 ], [  0,   0.0 ], [  0,   0.0 ] ]
- band_indices: [ 134 ]
  frequency: 20.8911872016  
  ir_label: A1
  characters: [ [  1,   0.0 ], [  1,   0.0 ], [  1,   0.0 ], [  1,   0.0 ], [  1,   0.0 ], [  1,   0.0 ] ]
- band_indices: [ 135 ]
  frequency: 20.9176017935  
  ir_label: A2
  characters: [ [  1,   0.0 ], [  1,   0.0 ], [  1,   0.0 ], [  1, 180.0 ], [  1, 180.0 ], [  1, 180.0 ] ]
- band_indices: [ 136, 137 ]
  frequency: 20.9351296602  
  ir_label: E
  characters: [ [  2,   0.0 ], [  1, 180.0 ], [  1, 180.0 ], [  0, 180.0 ], [  0, 180.0 ], [  0, 180.0 ] ]
- band_indices: [ 138, 139 ]
  frequency: 20.9786982638  
  ir_label: E
  characters: [ [  2,   0.0 ], [  1, 180.0 ], [  1, 180.0 ], [  0,   0.0 ], [  0,   0.0 ], [  0, 180.0 ] ]
- band_indices: [ 140, 141 ]
  frequency: 20.9848724942  
  ir_label: E
  characters: [ [  2,   0.0 ], [  1, 180.0 ], [  1, 180.0 ], [  0,   0.0 ], [  0,   0.0 ], [  0,   0.0 ] ]
- band_indices: [ 142, 143 ]
  frequency: 20.9921737838  
  ir_label: E
  characters: [ [  2,   0.0 ], [  1, 180.0 ], [  1, 180.0 ], [  0,   0.0 ], [  0,   0.0 ], [  0,   0.0 ] ]
- band_indices: [ 144 ]
  frequency: 21.0037130002  
  ir_label: A1
  characters: [ [  1,   0.0 ], [  1,   0.0 ], [  1,   0.0 ], [  1,   0.0 ], [  1,   0.0 ], [  1,   0.0 ] ]
- band_indices: [ 145 ]
  frequency: 21.0269238348  
  ir_label: A1
  characters: [ [  1,   0.0 ], [  1,   0.0 ], [  1,   0.0 ], [  1,   0.0 ], [  1,   0.0 ], [  1,   0.0 ] ]
- band_indices: [ 146, 147 ]
  frequency: 21.0372432875  
  ir_label: E
  characters: [ [  2,   0.0 ], [  1, 180.0 ], [  1, 180.0 ], [  0, 180.0 ], [  0, 180.0 ], [  0, 180.0 ] ]
- band_indices: [ 148 ]
  frequency: 21.0410982446  
  ir_label: A2
  characters: [ [  1,   0.0 ], [  1,   0.0 ], [  1,   0.0 ], [  1, 180.0 ], [  1, 180.0 ], [  1, 180.0 ] ]
- band_indices: [ 149, 150 ]
  frequency: 21.0485184702  
  ir_label: E
  characters: [ [  2,   0.0 ], [  1, 180.0 ], [  1, 180.0 ], [  0,   0.0 ], [  0,   0.0 ], [  0,   0.0 ] ]
- band_indices: [ 151 ]
  frequency: 21.0507558940  
  ir_label: A1
  characters: [ [  1,   0.0 ], [  1,   0.0 ], [  1,   0.0 ], [  1,   0.0 ], [  1,   0.0 ], [  1,   0.0 ] ]
- band_indices: [ 152, 153 ]
  frequency: 21.1009343301  
  ir_label: E
  characters: [ [  2,   0.0 ], [  1, 180.0 ], [  1, 180.0 ], [  0,   0.0 ], [  0,   0.0 ], [  0,   0.0 ] ]
- band_indices: [ 154 ]
  frequency: 21.1038075442  
  ir_label: A1
  characters: [ [  1,   0.0 ], [  1,   0.0 ], [  1,   0.0 ], [  1,   0.0 ], [  1,   0.0 ], [  1,   0.0 ] ]
- band_indices: [ 155, 156 ]
  frequency: 21.1605750966  
  ir_label: E
  characters: [ [  2,   0.0 ], [  1, 180.0 ], [  1, 180.0 ], [  0,   0.0 ], [  0,   0.0 ], [  0, 180.0 ] ]
- band_indices: [ 157 ]
  frequency: 21.1755010597  
  ir_label: A1
  characters: [ [  1,   0.0 ], [  1,   0.0 ], [  1,   0.0 ], [  1,   0.0 ], [  1,   0.0 ], [  1,   0.0 ] ]
- band_indices: [ 158 ]
  frequency: 21.2518797384  
  ir_label: A1
  characters: [ [  1,   0.0 ], [  1,   0.0 ], [  1,   0.0 ], [  1,   0.0 ], [  1,   0.0 ], [  1,   0.0 ] ]
- band_indices: [ 159, 160 ]
  frequency: 21.2672033076  
  ir_label: E
  characters: [ [  2,   0.0 ], [  1, 180.0 ], [  1, 180.0 ], [  0,   0.0 ], [  0,   0.0 ], [  0,   0.0 ] ]
- band_indices: [ 161, 162 ]
  frequency: 21.2802264287  
  ir_label: None
  characters: [ [  2,   0.0 ], [  1, 180.0 ], [  1, 180.0 ], [  0, 180.0 ], [  0, 180.0 ], [  0, 180.0 ] ]
- band_indices: [ 163 ]
  frequency: 21.2805804396  
  ir_label: None
  characters: [ [  1,   0.0 ], [  1,   0.0 ], [  1,   0.0 ], [  1, 180.0 ], [  1, 180.0 ], [  1, 180.0 ] ]
- band_indices: [ 164, 165 ]
  frequency: 21.3007821909  
  ir_label: E
  characters: [ [  2,   0.0 ], [  1, 180.0 ], [  1, 180.0 ], [  0, 180.0 ], [  0, 180.0 ], [  0,   0.0 ] ]
- band_indices: [ 166 ]
  frequency: 21.3064270597  
  ir_label: A2
  characters: [ [  1,   0.0 ], [  1,   0.0 ], [  1,   0.0 ], [  1, 180.0 ], [  1, 180.0 ], [  1, 180.0 ] ]
- band_indices: [ 167, 168 ]
  frequency: 21.3419495877  
  ir_label: E
  characters: [ [  2,   0.0 ], [  1, 180.0 ], [  1, 180.0 ], [  0, 180.0 ], [  0, 180.0 ], [  0,   0.0 ] ]
- band_indices: [ 169 ]
  frequency: 21.3894290136  
  ir_label: A2
  characters: [ [  1,   0.0 ], [  1,   0.0 ], [  1,   0.0 ], [  1, 180.0 ], [  1, 180.0 ], [  1, 180.0 ] ]
- band_indices: [ 170 ]
  frequency: 22.3368012183  
  ir_label: A1
  characters: [ [  1,   0.0 ], [  1,   0.0 ], [  1,   0.0 ], [  1,   0.0 ], [  1,   0.0 ], [  1,   0.0 ] ]
- band_indices: [ 171, 172 ]
  frequency: 22.5036330143  
  ir_label: E
  characters: [ [  2,   0.0 ], [  1, 180.0 ], [  1, 180.0 ], [  0,   0.0 ], [  0,   0.0 ], [  0,   0.0 ] ]
- band_indices: [ 173 ]
  frequency: 22.5513687762  
  ir_label: A1
  characters: [ [  1,   0.0 ], [  1,   0.0 ], [  1,   0.0 ], [  1,   0.0 ], [  1,   0.0 ], [  1,   0.0 ] ]
- band_indices: [ 174, 175 ]
  frequency: 22.8574401584  
  ir_label: E
  characters: [ [  2,   0.0 ], [  1, 180.0 ], [  1, 180.0 ], [  0, 180.0 ], [  0, 180.0 ], [  0,   0.0 ] ]
- band_indices: [ 176 ]
  frequency: 22.9013658570  
  ir_label: A2
  characters: [ [  1,   0.0 ], [  1,   0.0 ], [  1,   0.0 ], [  1, 180.0 ], [  1, 180.0 ], [  1, 180.0 ] ]
- band_indices: [ 177, 178 ]
  frequency: 22.9148349194  
  ir_label: E
  characters: [ [  2,   0.0 ], [  1, 180.0 ], [  1, 180.0 ], [  0, 180.0 ], [  0, 180.0 ], [  0, 180.0 ] ]
- band_indices: [ 179, 180 ]
  frequency: 22.9708809999  
  ir_label: E
  characters: [ [  2,   0.0 ], [  1, 180.0 ], [  1, 180.0 ], [  0,   0.0 ], [  0,   0.0 ], [  0,   0.0 ] ]
- band_indices: [ 181 ]
  frequency: 22.9786423267  
  ir_label: A1
  characters: [ [  1,   0.0 ], [  1,   0.0 ], [  1,   0.0 ], [  1,   0.0 ], [  1,   0.0 ], [  1,   0.0 ] ]
- band_indices: [ 182 ]
  frequency: 22.9878951682  
  ir_label: A2
  characters: [ [  1,   0.0 ], [  1,   0.0 ], [  1,   0.0 ], [  1, 180.0 ], [  1, 180.0 ], [  1, 180.0 ] ]
- band_indices: [ 183, 184 ]
  frequency: 22.9977323051  
  ir_label: E
  characters: [ [  2,   0.0 ], [  1, 180.0 ], [  1, 180.0 ], [  0, 180.0 ], [  0, 180.0 ], [  0, 180.0 ] ]
- band_indices: [ 185 ]
  frequency: 23.0064637059  
  ir_label: A2
  characters: [ [  1,   0.0 ], [  1,   0.0 ], [  1,   0.0 ], [  1, 180.0 ], [  1, 180.0 ], [  1, 180.0 ] ]
- band_indices: [ 186, 187 ]
  frequency: 23.0272967233  
  ir_label: E
  characters: [ [  2,   0.0 ], [  1, 180.0 ], [  1, 180.0 ], [  0, 180.0 ], [  0, 180.0 ], [  0, 180.0 ] ]
- band_indices: [ 188 ]
  frequency: 23.0717103710  
  ir_label: A1
  characters: [ [  1,   0.0 ], [  1,   0.0 ], [  1,   0.0 ], [  1,   0.0 ], [  1,   0.0 ], [  1,   0.0 ] ]
- band_indices: [ 189 ]
  frequency: 23.0771082765  
  ir_label: A2
  characters: [ [  1,   0.0 ], [  1,   0.0 ], [  1,   0.0 ], [  1, 180.0 ], [  1, 180.0 ], [  1, 180.0 ] ]
- band_indices: [ 190, 191 ]
  frequency: 23.0835095714  
  ir_label: E
  characters: [ [  2,   0.0 ], [  1, 180.0 ], [  1, 180.0 ], [  0, 180.0 ], [  0, 180.0 ], [  0,   0.0 ] ]
- band_indices: [ 192, 193 ]
  frequency: 23.0977276575  
  ir_label: E
  characters: [ [  2,   0.0 ], [  1, 180.0 ], [  1, 180.0 ], [  0, 180.0 ], [  0, 180.0 ], [  0,   0.0 ] ]
- band_indices: [ 194 ]
  frequency: 23.2185183368  
  ir_label: A1
  characters: [ [  1,   0.0 ], [  1,   0.0 ], [  1,   0.0 ], [  1,   0.0 ], [  1,   0.0 ], [  1,   0.0 ] ]
- band_indices: [ 195, 196 ]
  frequency: 23.2283253790  
  ir_label: E
  characters: [ [  2,   0.0 ], [  1, 180.0 ], [  1, 180.0 ], [  0, 180.0 ], [  0, 180.0 ], [  0,   0.0 ] ]
- band_indices: [ 197, 198 ]
  frequency: 23.2427629738  
  ir_label: E
  characters: [ [  2,   0.0 ], [  1, 180.0 ], [  1, 180.0 ], [  0,   0.0 ], [  0,   0.0 ], [  0, 180.0 ] ]
- band_indices: [ 199 ]
  frequency: 23.2588693487  
  ir_label: A2
  characters: [ [  1,   0.0 ], [  1,   0.0 ], [  1,   0.0 ], [  1, 180.0 ], [  1, 180.0 ], [  1, 180.0 ] ]
- band_indices: [ 200 ]
  frequency: 23.8193094929  
  ir_label: A1
  characters: [ [  1,   0.0 ], [  1,   0.0 ], [  1,   0.0 ], [  1,   0.0 ], [  1,   0.0 ], [  1,   0.0 ] ]
- band_indices: [ 201, 202 ]
  frequency: 25.1717688889  
  ir_label: E
  characters: [ [  2,   0.0 ], [  1, 180.0 ], [  1, 180.0 ], [  0,   0.0 ], [  0,   0.0 ], [  0, 180.0 ] ]
- band_indices: [ 203 ]
  frequency: 25.2039394915  
  ir_label: A1
  characters: [ [  1,   0.0 ], [  1,   0.0 ], [  1,   0.0 ], [  1,   0.0 ], [  1,   0.0 ], [  1,   0.0 ] ]
- band_indices: [ 204, 205 ]
  frequency: 25.6403559620  
  ir_label: E
  characters: [ [  2,   0.0 ], [  1, 180.0 ], [  1, 180.0 ], [  0, 180.0 ], [  0, 180.0 ], [  0, 180.0 ] ]
- band_indices: [ 206, 207 ]
  frequency: 25.7494119566  
  ir_label: E
  characters: [ [  2,   0.0 ], [  1, 180.0 ], [  1, 180.0 ], [  0, 180.0 ], [  0, 180.0 ], [  0, 180.0 ] ]
- band_indices: [ 208 ]
  frequency: 25.7719728796  
  ir_label: A2
  characters: [ [  1,   0.0 ], [  1,   0.0 ], [  1,   0.0 ], [  1, 180.0 ], [  1, 180.0 ], [  1, 180.0 ] ]
- band_indices: [ 209, 210 ]
  frequency: 25.8358232505  
  ir_label: E
  characters: [ [  2,   0.0 ], [  1, 180.0 ], [  1, 180.0 ], [  0, 180.0 ], [  0, 180.0 ], [  0,   0.0 ] ]
- band_indices: [ 211 ]
  frequency: 25.8481236630  
  ir_label: A1
  characters: [ [  1,   0.0 ], [  1,   0.0 ], [  1,   0.0 ], [  1,   0.0 ], [  1,   0.0 ], [  1,   0.0 ] ]
- band_indices: [ 212 ]
  frequency: 25.8681377147  
  ir_label: A2
  characters: [ [  1,   0.0 ], [  1,   0.0 ], [  1,   0.0 ], [  1, 180.0 ], [  1, 180.0 ], [  1, 180.0 ] ]
- band_indices: [ 213, 214 ]
  frequency: 25.8860803318  
  ir_label: E
  characters: [ [  2,   0.0 ], [  1, 180.0 ], [  1, 180.0 ], [  0, 180.0 ], [  0, 180.0 ], [  0, 180.0 ] ]
- band_indices: [ 215, 216 ]
  frequency: 25.8908272407  
  ir_label: E
  characters: [ [  2,   0.0 ], [  1, 180.0 ], [  1, 180.0 ], [  0, 180.0 ], [  0, 180.0 ], [  0,   0.0 ] ]
- band_indices: [ 217 ]
  frequency: 25.8926533548  
  ir_label: A2
  characters: [ [  1,   0.0 ], [  1,   0.0 ], [  1,   0.0 ], [  1, 180.0 ], [  1, 180.0 ], [  1, 180.0 ] ]
- band_indices: [ 218 ]
  frequency: 25.8965663439  
  ir_label: A1
  characters: [ [  1,   0.0 ], [  1,   0.0 ], [  1,   0.0 ], [  1,   0.0 ], [  1,   0.0 ], [  1,   0.0 ] ]
- band_indices: [ 219 ]
  frequency: 25.9069196483  
  ir_label: A2
  characters: [ [  1,   0.0 ], [  1,   0.0 ], [  1,   0.0 ], [  1, 180.0 ], [  1, 180.0 ], [  1, 180.0 ] ]
- band_indices: [ 220, 221 ]
  frequency: 25.9197327797  
  ir_label: E
  characters: [ [  2,   0.0 ], [  1, 180.0 ], [  1, 180.0 ], [  0, 180.0 ], [  0, 180.0 ], [  0,   0.0 ] ]
- band_indices: [ 222 ]
  frequency: 25.9300890662  
  ir_label: A1
  characters: [ [  1,   0.0 ], [  1,   0.0 ], [  1,   0.0 ], [  1,   0.0 ], [  1,   0.0 ], [  1,   0.0 ] ]
- band_indices: [ 223, 224 ]
  frequency: 25.9444095575  
  ir_label: E
  characters: [ [  2,   0.0 ], [  1, 180.0 ], [  1, 180.0 ], [  0, 180.0 ], [  0, 180.0 ], [  0, 180.0 ] ]
- band_indices: [ 225, 226 ]
  frequency: 25.9701388622  
  ir_label: E
  characters: [ [  2,   0.0 ], [  1, 180.0 ], [  1, 180.0 ], [  0,   0.0 ], [  0,   0.0 ], [  0,   0.0 ] ]
- band_indices: [ 227 ]
  frequency: 26.0589122019  
  ir_label: A1
  characters: [ [  1,   0.0 ], [  1,   0.0 ], [  1,   0.0 ], [  1,   0.0 ], [  1,   0.0 ], [  1,   0.0 ] ]
- band_indices: [ 228 ]
  frequency: 26.1302343890  
  ir_label: A1
  characters: [ [  1,   0.0 ], [  1,   0.0 ], [  1,   0.0 ], [  1,   0.0 ], [  1,   0.0 ], [  1,   0.0 ] ]
- band_indices: [ 229, 230 ]
  frequency: 26.1837828629  
  ir_label: E
  characters: [ [  2,   0.0 ], [  1, 180.0 ], [  1, 180.0 ], [  0,   0.0 ], [  0,   0.0 ], [  0, 180.0 ] ]
- band_indices: [ 231 ]
  frequency: 26.2356827221  
  ir_label: A1
  characters: [ [  1,   0.0 ], [  1,   0.0 ], [  1,   0.0 ], [  1,   0.0 ], [  1,   0.0 ], [  1,   0.0 ] ]
- band_indices: [ 232 ]
  frequency: 26.2976515049  
  ir_label: A1
  characters: [ [  1,   0.0 ], [  1,   0.0 ], [  1,   0.0 ], [  1,   0.0 ], [  1,   0.0 ], [  1,   0.0 ] ]
- band_indices: [ 233, 234 ]
  frequency: 26.8388962504  
  ir_label: E
  characters: [ [  2,   0.0 ], [  1, 180.0 ], [  1, 180.0 ], [  0, 180.0 ], [  0, 180.0 ], [  0, 180.0 ] ]
- band_indices: [ 235 ]
  frequency: 26.8905524561  
  ir_label: A2
  characters: [ [  1,   0.0 ], [  1,   0.0 ], [  1,   0.0 ], [  1, 180.0 ], [  1, 180.0 ], [  1, 180.0 ] ]
- band_indices: [ 236 ]
  frequency: 26.9264443323  
  ir_label: A1
  characters: [ [  1,   0.0 ], [  1,   0.0 ], [  1,   0.0 ], [  1,   0.0 ], [  1,   0.0 ], [  1,   0.0 ] ]
- band_indices: [ 237, 238 ]
  frequency: 26.9427505722  
  ir_label: E
  characters: [ [  2,   0.0 ], [  1, 180.0 ], [  1, 180.0 ], [  0, 180.0 ], [  0, 180.0 ], [  0,   0.0 ] ]
- band_indices: [ 239, 240 ]
  frequency: 26.9820129628  
  ir_label: E
  characters: [ [  2,   0.0 ], [  1, 180.0 ], [  1, 180.0 ], [  0, 180.0 ], [  0, 180.0 ], [  0, 180.0 ] ]
- band_indices: [ 241 ]
  frequency: 27.0308790386  
  ir_label: A2
  characters: [ [  1,   0.0 ], [  1,   0.0 ], [  1,   0.0 ], [  1, 180.0 ], [  1, 180.0 ], [  1, 180.0 ] ]
- band_indices: [ 242, 243 ]
  frequency: 27.0388666045  
  ir_label: E
  characters: [ [  2,   0.0 ], [  1, 180.0 ], [  1, 180.0 ], [  0, 180.0 ], [  0, 180.0 ], [  0, 180.0 ] ]
- band_indices: [ 244 ]
  frequency: 27.0401652713  
  ir_label: A2
  characters: [ [  1,   0.0 ], [  1,   0.0 ], [  1,   0.0 ], [  1, 180.0 ], [  1, 180.0 ], [  1, 180.0 ] ]
- band_indices: [ 245, 246 ]
  frequency: 27.0464749479  
  ir_label: E
  characters: [ [  2,   0.0 ], [  1, 180.0 ], [  1, 180.0 ], [  0,   0.0 ], [  0,   0.0 ], [  0,   0.0 ] ]
- band_indices: [ 247 ]
  frequency: 27.0547318039  
  ir_label: A1
  characters: [ [  1,   0.0 ], [  1,   0.0 ], [  1,   0.0 ], [  1,   0.0 ], [  1,   0.0 ], [  1,   0.0 ] ]
- band_indices: [ 248 ]
  frequency: 27.0571870007  
  ir_label: A2