       N       E                     dE             d eps       ncg     rms          rms(c)
DAV:   1     0.259515896470E+04    0.25952E+04   -0.45753E+05  2592   0.131E+03
DAV:   2    -0.168443405285E+04   -0.42796E+04   -0.40323E+04  3112   0.271E+02
DAV:   3    -0.191141531876E+04   -0.22698E+03   -0.22447E+03  3360   0.563E+01
DAV:   4    -0.191519834148E+04   -0.37830E+01   -0.37642E+01  3336   0.726E+00
DAV:   5    -0.191527955691E+04   -0.81215E-01   -0.81095E-01  3344   0.104E+00    0.867E+01
DAV:   6    -0.189908356818E+04    0.16196E+02   -0.90206E+01  2984   0.108E+01    0.466E+01
DAV:   7    -0.192935799106E+04   -0.30274E+02   -0.59284E+01  2944   0.856E+00    0.201E+01
DAV:   8    -0.193426569677E+04   -0.49077E+01   -0.93947E+00  3088   0.383E+00    0.379E+00
DAV:   9    -0.193440311534E+04   -0.13742E+00   -0.45049E-01  3128   0.112E+00    0.196E+00
DAV:  10    -0.193438996516E+04    0.13150E-01   -0.17665E-01  3096   0.553E-01    0.539E-01
DAV:  11    -0.193438597423E+04    0.39909E-02   -0.16577E-02  3160   0.179E-01    0.166E-01
DAV:  12    -0.193438684817E+04   -0.87395E-03   -0.10614E-03  3352   0.622E-02    0.806E-02
DAV:  13    -0.193438730012E+04   -0.45195E-03   -0.67038E-04  3216   0.428E-02    0.356E-02
DAV:  14    -0.193438738619E+04   -0.86075E-04   -0.14019E-04  3200   0.178E-02    0.184E-02
DAV:  15    -0.193438740596E+04   -0.19767E-04   -0.27390E-05  2496   0.835E-03    0.613E-03
DAV:  16    -0.193438740847E+04   -0.25117E-05   -0.53519E-06  1632   0.341E-03
   1 F= -.19343874E+04 E0= -.19343874E+04  d E =-.193439E+04  mag=     2.0007
       N       E                     dE             d eps       ncg     rms          rms(c)
DAV:   1    -0.193438775489E+04   -0.34893E-03   -0.28925E-01  2720   0.713E-01    0.893E-02
DAV:   2    -0.193438815294E+04   -0.39805E-03   -0.54303E-03  3376   0.911E-02    0.665E-02
DAV:   3    -0.193438810344E+04    0.49505E-04   -0.16645E-04  3400   0.210E-02    0.290E-02
DAV:   4    -0.193438810297E+04    0.46716E-06   -0.62900E-05  2912   0.998E-03
   2 F= -.19343881E+04 E0= -.19343881E+04  d E =-.694497E-03  mag=     2.0000
       N       E                     dE             d eps       ncg     rms          rms(c)
DAV:   1    -0.193438830240E+04   -0.19897E-03   -0.32483E-02  2720   0.239E-01    0.292E-02
DAV:   2    -0.193438834381E+04   -0.41414E-04   -0.60113E-04  3376   0.303E-02    0.218E-02
DAV:   3    -0.193438833734E+04    0.64761E-05   -0.18653E-05  2696   0.727E-03
   3 F= -.19343883E+04 E0= -.19343883E+04  d E =-.928867E-03  mag=     2.0000
       N       E                     dE             d eps       ncg     rms          rms(c)
DAV:   1    -0.193438867153E+04   -0.32772E-03   -0.21517E-01  2704   0.613E-01    0.807E-02
DAV:   2    -0.193438889852E+04   -0.22699E-03   -0.34692E-03  3368   0.716E-02    0.556E-02
DAV:   3    -0.193438886141E+04    0.37110E-04   -0.12519E-04  3344   0.179E-02    0.224E-02
DAV:   4    -0.193438886290E+04   -0.14850E-05   -0.44671E-05  2680   0.860E-03
   4 F= -.19343889E+04 E0= -.19343889E+04  d E =-.525558E-03  mag=     2.0000
       N       E                     dE             d eps       ncg     rms          rms(c)
DAV:   1    -0.193438889711E+04   -0.35697E-04   -0.10551E-02  2704   0.136E-01    0.166E-02
DAV:   2    -0.193438890683E+04   -0.97230E-05   -0.16396E-04  3360   0.156E-02    0.113E-02
DAV:   3    -0.193438890462E+04    0.22100E-05   -0.57336E-06  1888   0.405E-03
   5 F= -.19343889E+04 E0= -.19343889E+04  d E =-.567283E-03  mag=     2.0000
       N       E                     dE             d eps       ncg     rms          rms(c)
DAV:   1    -0.193438910188E+04   -0.19505E-03   -0.92877E-02  2688   0.407E-01    0.522E-02
DAV:   2    -0.193438920139E+04   -0.99504E-04   -0.15037E-03  3384   0.472E-02    0.367E-02
DAV:   3    -0.193438918637E+04    0.15016E-04   -0.51163E-05  3160   0.113E-02    0.149E-02
DAV:   4    -0.193438918659E+04   -0.22299E-06   -0.16880E-05  1944   0.533E-03
   6 F= -.19343892E+04 E0= -.19343892E+04  d E =-.281971E-03  mag=     2.0000
       N       E                     dE             d eps       ncg     rms          rms(c)
DAV:   1    -0.193438919017E+04   -0.38024E-05   -0.13392E-03  2672   0.488E-02    0.574E-03
DAV:   2    -0.193438919116E+04   -0.98619E-06   -0.18835E-05  2480   0.549E-03
   7 F= -.19343892E+04 E0= -.19343892E+04  d E =-.286536E-03  mag=     2.0000
       N       E                     dE             d eps       ncg     rms          rms(c)
DAV:   1    -0.193438930390E+04   -0.11373E-03   -0.58714E-02  2672   0.323E-01    0.409E-02
DAV:   2    -0.193438936117E+04   -0.57266E-04   -0.88507E-04  3392   0.360E-02    0.285E-02
DAV:   3    -0.193438935149E+04    0.96818E-05   -0.29416E-05  2848   0.852E-03
   8 F= -.19343894E+04 E0= -.19343894E+04  d E =-.160330E-03  mag=     2.0000
       N       E                     dE             d eps       ncg     rms          rms(c)
DAV:   1    -0.193438935234E+04    0.88325E-05   -0.92149E-04  2656   0.406E-02    0.502E-03
DAV:   2    -0.193438935303E+04   -0.68842E-06   -0.15773E-05  2240   0.496E-03
   9 F= -.19343894E+04 E0= -.19343894E+04  d E =-.161868E-03  mag=     2.0000
       N       E                     dE             d eps       ncg     rms          rms(c)
DAV:   1    -0.193438943968E+04   -0.87342E-04   -0.41541E-02  2672   0.270E-01    0.349E-02
DAV:   2    -0.193438947660E+04   -0.36923E-04   -0.57115E-04  3384   0.285E-02    0.234E-02
DAV:   3    -0.193438947073E+04    0.58708E-05   -0.17631E-05  2488   0.671E-03
  10 F= -.19343895E+04 E0= -.19343895E+04  d E =-.117706E-03  mag=     2.0000
       N       E                     dE             d eps       ncg     rms          rms(c)
DAV:   1    -0.193438947112E+04    0.54856E-05   -0.74908E-06  1624   0.355E-03    0.304E-03
DAV:   2    -0.193438947123E+04   -0.10937E-06   -0.10722E-06  1480   0.161E-03
  11 F= -.19343895E+04 E0= -.19343895E+04  d E =-.118200E-03  mag=     2.0000
       N       E                     dE             d eps       ncg     rms          rms(c)
DAV:   1    -0.193438947594E+04   -0.48253E-05   -0.26180E-02  2704   0.212E-01    0.286E-02
DAV:   2    -0.193438950183E+04   -0.25889E-04   -0.39301E-04  3384   0.239E-02    0.189E-02
DAV:   3    -0.193438949840E+04    0.34314E-05   -0.13604E-05  2360   0.550E-03
  12 F= -.19343895E+04 E0= -.19343895E+04  d E =-.271734E-04  mag=     2.0000
       N       E                     dE             d eps       ncg     rms          rms(c)
DAV:   1    -0.193438950980E+04   -0.79656E-05   -0.34385E-03  2704   0.771E-02    0.101E-02
DAV:   2    -0.193438951327E+04   -0.34762E-05   -0.55875E-05  3344   0.911E-03
  13 F= -.19343895E+04 E0= -.19343895E+04  d E =-.420466E-04  mag=     2.0000
       N       E                     dE             d eps       ncg     rms          rms(c)
DAV:   1    -0.193438951219E+04   -0.23886E-05   -0.19682E-02  2704   0.184E-01    0.226E-02
DAV:   2    -0.193438953272E+04   -0.20536E-04   -0.29804E-04  3392   0.207E-02    0.153E-02
DAV:   3    -0.193438953000E+04    0.27181E-05   -0.91797E-06  2104   0.470E-03
  14 F= -.19343895E+04 E0= -.19343895E+04  d E =-.167304E-04  mag=     2.0000
       N       E                     dE             d eps       ncg     rms          rms(c)
DAV:   1    -0.193438953739E+04   -0.46703E-05   -0.26579E-03  2688   0.676E-02    0.878E-03
DAV:   2    -0.193438954008E+04   -0.26885E-05   -0.42956E-05  3184   0.794E-03
  15 F= -.19343895E+04 E0= -.19343895E+04  d E =-.268074E-04  mag=     2.0000
