nqpoint: 2      
npath: 1      
segment_nqpoint:
- 2
reciprocal_lattice:
- [   0.09361335,   0.00000001,   0.00000001 ] # a*
- [   0.00000000,   0.09361337,   0.00000007 ] # b*
- [   0.00000000,   0.00000000,   0.09361337 ] # c*
natom: 215    
lattice:
- [    10.682237625100001,     0.000000000000000,     0.000000000000000 ] # a
- [    -0.000001422400000,    10.682234764100000,     0.000000000000000 ] # b
- [    -0.000001422400000,    -0.000008534600000,    10.682234764100000 ] # c
points:
- symbol: N # 1
  coordinates: [  0.549471460989747,  0.382805312652379,  0.549471399957840 ]
  mass: 14.006700
- symbol: C # 2
  coordinates: [  0.958211252977239,  0.791545472951374,  0.125085570407609 ]
  mass: 12.010700
- symbol: C # 3
  coordinates: [  0.375443571301035,  0.541575347704500,  0.874857741552005 ]
  mass: 12.010700
- symbol: C # 4
  coordinates: [  0.291667349478026,  0.125001732271251,  0.791262911919036 ]
  mass: 12.010700
- symbol: C # 5
  coordinates: [  0.292847636659480,  0.623928205165834,  0.624698360374700 ]
  mass: 12.010700
- symbol: C # 6
  coordinates: [  0.375443546400715,  0.708191086335786,  0.708240535401409 ]
  mass: 12.010700
- symbol: C # 7
  coordinates: [  0.462414721132067,  0.458231086533147,  0.624898476569564 ]
  mass: 12.010700
- symbol: C # 8
  coordinates: [  0.542293956181587,  0.543056575735832,  0.709722469954642 ]
  mass: 12.010700
- symbol: C # 9
  coordinates: [  0.458858431260047,  0.625627748723243,  0.792293584986985 ]
  mass: 12.010700
- symbol: C # 10
  coordinates: [  0.541895493182273,  0.708754746516329,  0.875420278900710 ]
  mass: 12.010700
- symbol: C # 11
  coordinates: [  0.624865378257084,  0.791389024028068,  0.125345457870259 ]
  mass: 12.010700
- symbol: C # 12
  coordinates: [  0.708076117089090,  0.874859292009696,  0.208482628023981 ]
  mass: 12.010700
- symbol: C # 13
  coordinates: [  0.624864658292250,  0.958679531974711,  0.958054523337378 ]
  mass: 12.010700
- symbol: C # 14
  coordinates: [  0.708076786375691,  0.041816083666262,  0.041524349352101 ]
  mass: 12.010700
- symbol: C # 15
  coordinates: [  0.791646913062399,  0.791868831005714,  0.958534572852813 ]
  mass: 12.010700
- symbol: C # 16
  coordinates: [  0.874883149326419,  0.875073597394541,  0.041739154576991 ]
  mass: 12.010700
- symbol: C # 17
  coordinates: [  0.791351992584675,  0.958352546676280,  0.125018310309266 ]
  mass: 12.010700
- symbol: C # 18
  coordinates: [  0.874695145513941,  0.041628900455144,  0.208295304847138 ]
  mass: 12.010700
- symbol: C # 19
  coordinates: [  0.624883131424131,  0.791818519702826,  0.458449923048543 ]
  mass: 12.010700
- symbol: C # 20
  coordinates: [  0.708194803094406,  0.875391114452016,  0.541670253413961 ]
  mass: 12.010700
- symbol: C # 21
  coordinates: [  0.624644772410425,  0.958259687173008,  0.291575672477584 ]
  mass: 12.010700
- symbol: C # 22
  coordinates: [  0.708419536716518,  0.041318386019329,  0.375200208604275 ]
  mass: 12.010700
- symbol: C # 23
  coordinates: [  0.791426533282830,  0.791512523333375,  0.291841510208153 ]
  mass: 12.010700
- symbol: C # 24
  coordinates: [  0.874919272943920,  0.874843350453609,  0.375091564633734 ]
  mass: 12.010700
- symbol: C # 25
  coordinates: [  0.791599156191679,  0.958324017875139,  0.458181312214925 ]
  mass: 12.010700
- symbol: C # 26
  coordinates: [  0.874406958369286,  0.042234600209521,  0.541456291588216 ]
  mass: 12.010700
- symbol: C # 27
  coordinates: [  0.292847360155383,  0.458032517837954,  0.790595226237015 ]
  mass: 12.010700
- symbol: C # 28
  coordinates: [  0.625160349404150,  0.792213472720043,  0.791821904196117 ]
  mass: 12.010700
- symbol: C # 29
  coordinates: [  0.541867794772066,  0.708465109711182,  0.541867792881291 ]
  mass: 12.010700
- symbol: C # 30
  coordinates: [  0.540937891386843,  0.539995738637625,  0.376647942789200 ]
  mass: 12.010700
- symbol: C # 31
  coordinates: [  0.375049637133553,  0.208382498059172,  0.874566395195310 ]
  mass: 12.010700
- symbol: C # 32
  coordinates: [  0.293070253620923,  0.290697243995449,  0.623066224917267 ]
  mass: 12.010700
- symbol: C # 33
  coordinates: [  0.376647441155654,  0.374271487767848,  0.706661405413161 ]
  mass: 12.010700
- symbol: C # 34
  coordinates: [  0.457366269190132,  0.126404760227401,  0.623063690514386 ]
  mass: 12.010700
- symbol: C # 35
  coordinates: [  0.540937097302978,  0.209981087185884,  0.706662364946859 ]
  mass: 12.010700
- symbol: C # 36
  coordinates: [  0.458526113073550,  0.291860845350996,  0.791111822224844 ]
  mass: 12.010700
- symbol: C # 37
  coordinates: [  0.541868331555652,  0.375202245502154,  0.875131763383683 ]
  mass: 12.010700
- symbol: C # 38
  coordinates: [  0.291576467231415,  0.457977718053020,  0.124925432181218 ]
  mass: 12.010700
- symbol: C # 39
  coordinates: [  0.375202543804086,  0.541751941642576,  0.207986650017159 ]
  mass: 12.010700
- symbol: C # 40
  coordinates: [  0.291841668026133,  0.624760752456417,  0.958178627659504 ]
  mass: 12.010700
- symbol: C # 41
  coordinates: [  0.375091643749983,  0.708253428039860,  0.041509584819066 ]
  mass: 12.010700
- symbol: C # 42
  coordinates: [  0.458450151944193,  0.458216999452233,  0.958484700919986 ]
  mass: 12.010700
- symbol: C # 43
  coordinates: [  0.541670464586982,  0.541529380413902,  0.042057130659526 ]
  mass: 12.010700
- symbol: C # 44
  coordinates: [  0.458181040831397,  0.624932546893616,  0.124989727552944 ]
  mass: 12.010700
- symbol: C # 45
  coordinates: [  0.541455927454952,  0.707741189069239,  0.208900701985457 ]
  mass: 12.010700
- symbol: C # 46
  coordinates: [  0.293069654020767,  0.456395509579934,  0.457363935272919 ]
  mass: 12.010700
- symbol: C # 47
  coordinates: [  0.376647962539984,  0.539995729801388,  0.540937868891555 ]
  mass: 12.010700
- symbol: C # 48
  coordinates: [  0.291667672309112,  0.624594795083793,  0.291667673347239 ]
  mass: 12.010700
- symbol: C # 49
  coordinates: [  0.375049171246997,  0.707899442708360,  0.375049161456668 ]
  mass: 12.010700
- symbol: C # 50
  coordinates: [  0.457363948354117,  0.456395506253671,  0.293069642215874 ]
  mass: 12.010700
- symbol: C # 51
  coordinates: [  0.458526435170140,  0.624443397890214,  0.458526432339120 ]
  mass: 12.010700
- symbol: C # 52
  coordinates: [  0.544949633579964,  0.202519860124128,  0.369185169968835 ]
  mass: 12.010700
- symbol: C # 53
  coordinates: [  0.708305675181992,  0.875480345308988,  0.874979888795344 ]
  mass: 12.010700
- symbol: C # 54
  coordinates: [  0.707862021832236,  0.042465169915179,  0.707862013899630 ]
  mass: 12.010700
- symbol: C # 55
  coordinates: [  0.875420268128161,  0.375229442790312,  0.875420271290256 ]
  mass: 12.010700
- symbol: C # 56
  coordinates: [  0.624488910253905,  0.457820648876998,  0.125807270015554 ]
  mass: 12.010700
- symbol: C # 57
  coordinates: [  0.707862716032552,  0.541197066996458,  0.209131547539718 ]
  mass: 12.010700
- symbol: C # 58
  coordinates: [  0.625160561029713,  0.625155617479677,  0.958879130302164 ]
  mass: 12.010700
- symbol: C # 59
  coordinates: [  0.708305648371650,  0.708314127548191,  0.042145742091090 ]
  mass: 12.010700
- symbol: C # 60
  coordinates: [  0.791821567138914,  0.458494309444907,  0.958879247228533 ]
  mass: 12.010700
- symbol: C # 61
  coordinates: [  0.874980130211819,  0.541640126480559,  0.042145855418519 ]
  mass: 12.010700
- symbol: C # 62
  coordinates: [  0.791441400929246,  0.624775692961936,  0.125584951813814 ]
  mass: 12.010700
- symbol: C # 63
  coordinates: [  0.874817797976602,  0.708151795852700,  0.208620288121226 ]
  mass: 12.010700
- symbol: C # 64
  coordinates: [  0.624898515625566,  0.458231107577395,  0.462414711362113 ]
  mass: 12.010700
- symbol: C # 65
  coordinates: [  0.709722470102726,  0.543056592626431,  0.542293961355109 ]
  mass: 12.010700
- symbol: C # 66
  coordinates: [  0.624698361481196,  0.623928210362539,  0.292847628156670 ]
  mass: 12.010700
- symbol: C # 67
  coordinates: [  0.708240533396959,  0.708191087574741,  0.375443539588813 ]
  mass: 12.010700
- symbol: C # 68
  coordinates: [  0.790595232799267,  0.458032523297388,  0.292847354504945 ]
  mass: 12.010700
- symbol: C # 69
  coordinates: [  0.874857743126432,  0.541575352529778,  0.375443565584320 ]
  mass: 12.010700
- symbol: C # 70
  coordinates: [  0.792293577539592,  0.625627753232019,  0.458858441280800 ]
  mass: 12.010700
- symbol: C # 71
  coordinates: [  0.875420274109840,  0.708754743588157,  0.541895500245615 ]
  mass: 12.010700
- symbol: C # 72
  coordinates: [  0.625675435333008,  0.459009404777874,  0.792611548791412 ]
  mass: 12.010700
- symbol: C # 73
  coordinates: [  0.708779759263776,  0.542114047964324,  0.875731760786698 ]
  mass: 12.010700
- symbol: C # 74
  coordinates: [  0.625675486462140,  0.625945508992947,  0.625675500174367 ]
  mass: 12.010700
- symbol: C # 75
  coordinates: [  0.708779832408144,  0.709066178480471,  0.708779839183498 ]
  mass: 12.010700
- symbol: C # 76
  coordinates: [  0.792611544408030,  0.459009404658393,  0.625675448761012 ]
  mass: 12.010700
- symbol: C # 77
  coordinates: [  0.875731753004853,  0.542114048537717,  0.708779772807723 ]
  mass: 12.010700
- symbol: C # 78
  coordinates: [  0.792293589140102,  0.292192687958074,  0.792293598872392 ]
  mass: 12.010700
- symbol: C # 79
  coordinates: [  0.624488300875284,  0.959141391048627,  0.624488305349029 ]
  mass: 12.010700
- symbol: C # 80
  coordinates: [  0.874857065467195,  0.208777126422249,  0.708240994924661 ]
  mass: 12.010700
- symbol: C # 81
  coordinates: [  0.709722358766408,  0.375628259606248,  0.709722367337198 ]
  mass: 12.010700
- symbol: C # 82
  coordinates: [  0.791821886517534,  0.792213469638799,  0.625160356563912 ]
  mass: 12.010700
- symbol: C # 83
  coordinates: [  0.874979887498645,  0.875480338494380,  0.708305677397298 ]
  mass: 12.010700
- symbol: C # 84
  coordinates: [  0.791441510074886,  0.958919412995191,  0.791441513948062 ]
  mass: 12.010700
- symbol: C # 85
  coordinates: [  0.874817416410766,  0.041954711002138,  0.874817420120856 ]
  mass: 12.010700
- symbol: C # 86
  coordinates: [  0.624645200881856,  0.124910095619537,  0.124925012564219 ]
  mass: 12.010700
- symbol: C # 87
  coordinates: [  0.708418673100156,  0.208534998312108,  0.207985387062462 ]
  mass: 12.010700
- symbol: C # 88
  coordinates: [  0.624882683829788,  0.291784569984837,  0.958484805312358 ]
  mass: 12.010700
- symbol: C # 89
  coordinates: [  0.708195831113800,  0.375005113165710,  0.042056492676897 ]
  mass: 12.010700
- symbol: C # 90
  coordinates: [  0.791426228270241,  0.125176304732950,  0.958178253733218 ]
  mass: 12.010700
- symbol: C # 91
  coordinates: [  0.874920043564178,  0.208425672248606,  0.041508577599970 ]
  mass: 12.010700
- symbol: C # 92
  coordinates: [  0.791599660499581,  0.291515594730689,  0.124989606537442 ]
  mass: 12.010700
- symbol: C # 93
  coordinates: [  0.874408329953643,  0.374790627694441,  0.208900323620239 ]
  mass: 12.010700
- symbol: C # 94
  coordinates: [  0.623063689011160,  0.126404776077151,  0.457366271856254 ]
  mass: 12.010700
- symbol: C # 95
  coordinates: [  0.706662388727990,  0.209981090594986,  0.540937092858480 ]
  mass: 12.010700
- symbol: C # 96
  coordinates: [  0.623066218542576,  0.290697258164679,  0.293070262149241 ]
  mass: 12.010700
- symbol: C # 97
  coordinates: [  0.706661430904975,  0.374271504587051,  0.376647423998978 ]
  mass: 12.010700
- symbol: C # 98
  coordinates: [  0.791262904019244,  0.125001737785592,  0.291667349344768 ]
  mass: 12.010700
- symbol: C # 99
  coordinates: [  0.874566402045694,  0.208382497004026,  0.375049627749179 ]
  mass: 12.010700
- symbol: C # 100
  coordinates: [  0.791111832303624,  0.291860845518867,  0.458526111116346 ]
  mass: 12.010700
- symbol: C # 101
  coordinates: [  0.875131764451685,  0.375202250768308,  0.541868337601504 ]
  mass: 12.010700
- symbol: C # 102
  coordinates: [  0.624698418440223,  0.126182097421711,  0.790595079982956 ]
  mass: 12.010700
- symbol: C # 103
  coordinates: [  0.708240987782379,  0.208777123932571,  0.874857061856941 ]
  mass: 12.010700
- symbol: C # 104
  coordinates: [  0.624897498696407,  0.295749583475206,  0.624897483063525 ]
  mass: 12.010700
- symbol: C # 105
  coordinates: [  0.790595084103380,  0.126182094059397,  0.624698421627084 ]
  mass: 12.010700
- symbol: C # 106
  coordinates: [  0.458675068017932,  0.125153366080557,  0.291818153129083 ]
  mass: 12.010700
- symbol: C # 107
  coordinates: [  0.369188299438682,  0.378282611406755,  0.369188278053058 ]
  mass: 12.010700
- symbol: C # 108
  coordinates: [  0.291816818835885,  0.292007582445595,  0.291816813561688 ]
  mass: 12.010700
- symbol: C # 109
  coordinates: [  0.124899808175145,  0.124894418863137,  0.958075585854493 ]
  mass: 12.010700
- symbol: C # 110
  coordinates: [  0.208182690801085,  0.208166300082515,  0.041343764250639 ]
  mass: 12.010700
- symbol: C # 111
  coordinates: [  0.124354275654707,  0.291536291891259,  0.124354272090410 ]
  mass: 12.010700
- symbol: C # 112
  coordinates: [  0.207328021376797,  0.374317467058471,  0.207328017221994 ]
  mass: 12.010700
- symbol: C # 113
  coordinates: [  0.958025205700370,  0.125146705175035,  0.458192902050482 ]
  mass: 12.010700
- symbol: C # 114
  coordinates: [  0.041677391832679,  0.208352790276502,  0.541417438113841 ]
  mass: 12.010700
- symbol: C # 115
  coordinates: [  0.958025031348899,  0.291527590248723,  0.291812681646533 ]
  mass: 12.010700
- symbol: C # 116
  coordinates: [  0.041677975249955,  0.374751368814846,  0.375019697340029 ]
  mass: 12.010700
- symbol: C # 117
  coordinates: [  0.124974410040799,  0.124995562303697,  0.291661349079919 ]
  mass: 12.010700
- symbol: C # 118
  coordinates: [  0.208555826255677,  0.208159113321339,  0.374826382166723 ]
  mass: 12.010700
- symbol: C # 119
  coordinates: [  0.125421396595454,  0.291383121195267,  0.458049896415726 ]
  mass: 12.010700
- symbol: C # 120
  coordinates: [  0.209238939486588,  0.374388714629940,  0.541052903919446 ]
  mass: 12.010700
- symbol: C # 121
  coordinates: [  0.958178246160395,  0.125176306670029,  0.791426235329492 ]
  mass: 12.010700
- symbol: C # 122
  coordinates: [  0.041508576639415,  0.208425673540970,  0.874920047511202 ]
  mass: 12.010700
- symbol: C # 123
  coordinates: [  0.958484801590389,  0.291784574664156,  0.624882689032958 ]
  mass: 12.010700
- symbol: C # 124
  coordinates: [  0.042056497754449,  0.375005113658849,  0.708195830697812 ]
  mass: 12.010700
- symbol: C # 125
  coordinates: [  0.124925000355812,  0.124910081661201,  0.624645203836703 ]
  mass: 12.010700
- symbol: C # 126
  coordinates: [  0.207985379905726,  0.208534993067814,  0.708418674640655 ]
  mass: 12.010700
- symbol: C # 127
  coordinates: [  0.124989598413768,  0.291515593968986,  0.791599665913897 ]
  mass: 12.010700
- symbol: C # 128
  coordinates: [  0.208900335755608,  0.374790627476212,  0.874408320832837 ]
  mass: 12.010700
- symbol: C # 129
  coordinates: [  0.958054819325073,  0.458199370161229,  0.125345236111126 ]
  mass: 12.010700
- symbol: C # 130
  coordinates: [  0.041524919434726,  0.541411071987939,  0.208482294419491 ]
  mass: 12.010700
- symbol: C # 131
  coordinates: [  0.958534768309564,  0.624981288651975,  0.958534772806473 ]
  mass: 12.010700
- symbol: C # 132
  coordinates: [  0.041392351350243,  0.374810999048402,  0.041392344253836 ]
  mass: 12.010700
- symbol: C # 133
  coordinates: [  0.041739242037672,  0.708217253586482,  0.041739237480789 ]
  mass: 12.010700
- symbol: C # 134
  coordinates: [  0.958305619503877,  0.291705651012497,  0.958305626100600 ]
  mass: 12.010700
- symbol: C # 135
  coordinates: [  0.958075584971897,  0.124894419377159,  0.124899805097257 ]
  mass: 12.010700
- symbol: C # 136
  coordinates: [  0.041532363387106,  0.874866405684249,  0.208291017059081 ]
  mass: 12.010700
- symbol: C # 137
  coordinates: [  0.958211090827913,  0.958419975698331,  0.958211087690034 ]
  mass: 12.010700
- symbol: C # 138
  coordinates: [  0.041532242941038,  0.041625246844566,  0.041532234049640 ]
  mass: 12.010700
- symbol: C # 139
  coordinates: [  0.125085573535714,  0.791545470161276,  0.958211253514344 ]
  mass: 12.010700
- symbol: C # 140
  coordinates: [  0.208291021251988,  0.874866408437055,  0.041532361127500 ]
  mass: 12.010700
- symbol: C # 141
  coordinates: [  0.124881106431935,  0.958215181117292,  0.124881107426744 ]
  mass: 12.010700
- symbol: C # 142
  coordinates: [  0.208214383350452,  0.041548678070401,  0.208214381465254 ]
  mass: 12.010700
- symbol: C # 143
  coordinates: [  0.958305571344137,  0.791640177393649,  0.458370762270776 ]
  mass: 12.010700
- symbol: C # 144
  coordinates: [  0.041392182611790,  0.874726335612894,  0.541476817909973 ]
  mass: 12.010700
- symbol: C # 145
  coordinates: [  0.958076117555319,  0.958233653376959,  0.291559866441256 ]
  mass: 12.010700
- symbol: C # 146
  coordinates: [  0.041343711017632,  0.041517016649494,  0.374831968109436 ]
  mass: 12.010700
- symbol: C # 147
  coordinates: [  0.124899882806705,  0.791410100529130,  0.291559866618838 ]
  mass: 12.010700
- symbol: C # 148
  coordinates: [  0.208183244015000,  0.874677816562151,  0.374832313569226 ]
  mass: 12.010700
- symbol: C # 149
  coordinates: [  0.124354010368880,  0.957688288149696,  0.458201491137352 ]
  mass: 12.010700
- symbol: C # 150
  coordinates: [  0.207328511926960,  0.040662277253267,  0.540983309784447 ]
  mass: 12.010700
- symbol: C # 151
  coordinates: [  0.958534567493556,  0.791868828668613,  0.791646921326781 ]
  mass: 12.010700
- symbol: C # 152
  coordinates: [  0.041739158349786,  0.875073595106962,  0.874883147063102 ]
  mass: 12.010700
- symbol: C # 153
  coordinates: [  0.958054514663354,  0.958679520008957,  0.624864666187428 ]
  mass: 12.010700
- symbol: C # 154
  coordinates: [  0.041524348213071,  0.041816076054149,  0.708076789466830 ]
  mass: 12.010700
- symbol: C # 155
  coordinates: [  0.125345452887072,  0.791389014696344,  0.624865381841893 ]
  mass: 12.010700
- symbol: C # 156
  coordinates: [  0.208482630096893,  0.874859284228554,  0.708076120956150 ]
  mass: 12.010700
- symbol: C # 157
  coordinates: [  0.125018309354509,  0.958352541807504,  0.791351999843724 ]
  mass: 12.010700
- symbol: C # 158
  coordinates: [  0.208295314807581,  0.041628900030239,  0.874695144436135 ]
  mass: 12.010700
- symbol: C # 159
  coordinates: [  0.041343768194619,  0.208166301748241,  0.208182682105276 ]
  mass: 12.010700
- symbol: C # 160
  coordinates: [  0.125345234537699,  0.458199366165264,  0.958054820949693 ]
  mass: 12.010700
- symbol: C # 161
  coordinates: [  0.208482298658572,  0.541411070641321,  0.041524916257491 ]
  mass: 12.010700
- symbol: C # 162
  coordinates: [  0.125018125803963,  0.624686222749531,  0.125018124277470 ]
  mass: 12.010700
- symbol: C # 163
  coordinates: [  0.374826321800519,  0.041889946046423,  0.374826328541378 ]
  mass: 12.010700
- symbol: C # 164
  coordinates: [  0.458193018320475,  0.791358840823754,  0.291811959522281 ]
  mass: 12.010700
- symbol: C # 165
  coordinates: [  0.541416622181646,  0.875012110076628,  0.375019853186352 ]
  mass: 12.010700
- symbol: C # 166
  coordinates: [  0.458048882535048,  0.958755620351753,  0.458048889252912 ]
  mass: 12.010700
- symbol: C # 167
  coordinates: [  0.541053046053988,  0.042574552028612,  0.541053038060551 ]
  mass: 12.010700
- symbol: C # 168
  coordinates: [  0.291841507882214,  0.791512518010665,  0.791426539909170 ]
  mass: 12.010700
- symbol: C # 169
  coordinates: [  0.375091572563942,  0.874843345176044,  0.874919269530334 ]
  mass: 12.010700
- symbol: C # 170
  coordinates: [  0.291575667110802,  0.958259672520129,  0.624644774960975 ]
  mass: 12.010700
- symbol: C # 171
  coordinates: [  0.375200212722217,  0.041318372803127,  0.708419532131386 ]
  mass: 12.010700
- symbol: C # 172
  coordinates: [  0.458449923701863,  0.791818518868681,  0.624883136349327 ]
  mass: 12.010700
- symbol: C # 173
  coordinates: [  0.541670256059034,  0.875391116910787,  0.708194803833727 ]
  mass: 12.010700
- symbol: C # 174
  coordinates: [  0.458181311256793,  0.958324012066289,  0.791599159136797 ]
  mass: 12.010700
- symbol: C # 175
  coordinates: [  0.541456289572097,  0.042234601115521,  0.874406953895446 ]
  mass: 12.010700
- symbol: C # 176
  coordinates: [  0.291661349982299,  0.124995566136292,  0.124974413235428 ]
  mass: 12.010700
- symbol: C # 177
  coordinates: [  0.374826377946293,  0.208159119190519,  0.208555825606182 ]
  mass: 12.010700
- symbol: C # 178
  coordinates: [  0.291812687783714,  0.291527589991956,  0.958025026129682 ]
  mass: 12.010700
- symbol: C # 179
  coordinates: [  0.375019701665354,  0.374751367968256,  0.041677973174081 ]
  mass: 12.010700
- symbol: C # 180
  coordinates: [  0.458192899925368,  0.125146709084761,  0.958025204849860 ]
  mass: 12.010700
- symbol: C # 181
  coordinates: [  0.541417437736794,  0.208352792563276,  0.041677390340213 ]
  mass: 12.010700
- symbol: C # 182
  coordinates: [  0.458049891527363,  0.291383125739621,  0.125421397884210 ]
  mass: 12.010700
- symbol: C # 183
  coordinates: [  0.541052916266794,  0.374388722578990,  0.209238924951584 ]
  mass: 12.010700
- symbol: C # 184
  coordinates: [  0.291818119184288,  0.125153332003598,  0.458675090722924 ]
  mass: 12.010700
- symbol: C # 185
  coordinates: [  0.369185115664098,  0.202519782136114,  0.544949649766115 ]
  mass: 12.010700
- symbol: C # 186
  coordinates: [  0.291660859999854,  0.958308963705199,  0.291660863904894 ]
  mass: 12.010700
- symbol: C # 187
  coordinates: [  0.375019858121391,  0.875012106172067,  0.541416620445309 ]
  mass: 12.010700
- symbol: C # 188
  coordinates: [  0.291811960288137,  0.791358838631227,  0.458193021543755 ]
  mass: 12.010700
- symbol: C # 189
  coordinates: [  0.540983310673258,  0.040662309053418,  0.207328535162967 ]
  mass: 12.010700
- symbol: C # 190
  coordinates: [  0.208295811362266,  0.708027920024442,  0.208295803845234 ]
  mass: 12.010700
- symbol: C # 191
  coordinates: [  0.958484700336942,  0.458217001396775,  0.458450157654661 ]
  mass: 12.010700
- symbol: C # 192
  coordinates: [  0.042057132307809,  0.541529381483881,  0.541670467593850 ]
  mass: 12.010700
- symbol: C # 193
  coordinates: [  0.958178625751886,  0.624760755264784,  0.291841674293273 ]
  mass: 12.010700
- symbol: C # 194
  coordinates: [  0.041509587864269,  0.708253430756440,  0.375091639817390 ]
  mass: 12.010700
- symbol: C # 195
  coordinates: [  0.124925431890762,  0.457977719579253,  0.291576468610441 ]
  mass: 12.010700
- symbol: C # 196
  coordinates: [  0.207986653644095,  0.541751941842864,  0.375202535337531 ]
  mass: 12.010700
- symbol: C # 197
  coordinates: [  0.124989724192049,  0.624932547093922,  0.458181046027655 ]
  mass: 12.010700
- symbol: C # 198
  coordinates: [  0.208900714535307,  0.707741188554676,  0.541455926488855 ]
  mass: 12.010700
- symbol: C # 199
  coordinates: [  0.958879242971475,  0.458494313230037,  0.791821581481206 ]
  mass: 12.010700
- symbol: C # 200
  coordinates: [  0.042145859224222,  0.541640126296614,  0.874980129696418 ]
  mass: 12.010700
- symbol: C # 201
  coordinates: [  0.792100321804417,  0.625434694366776,  0.792100335613215 ]
  mass: 12.010700
- symbol: C # 202
  coordinates: [  0.958879122483559,  0.625155612647501,  0.625160575172649 ]
  mass: 12.010700
- symbol: C # 203
  coordinates: [  0.125807273601310,  0.457820648727539,  0.624488915255854 ]
  mass: 12.010700
- symbol: C # 204
  coordinates: [  0.209131557817859,  0.541197066443700,  0.707862714537392 ]
  mass: 12.010700
- symbol: C # 205
  coordinates: [  0.125584952430985,  0.624775690403497,  0.791441403960413 ]
  mass: 12.010700
- symbol: C # 206
  coordinates: [  0.208620287111105,  0.708151791520184,  0.874817798707804 ]
  mass: 12.010700
- symbol: C # 207
  coordinates: [  0.291559867022294,  0.791410103492677,  0.124899882389629 ]
  mass: 12.010700
- symbol: C # 208
  coordinates: [  0.374832318929338,  0.874677824175405,  0.208183241008645 ]
  mass: 12.010700
- symbol: C # 209
  coordinates: [  0.291559871258823,  0.958233655961414,  0.958076121708699 ]
  mass: 12.010700
- symbol: C # 210
  coordinates: [  0.374831975911470,  0.041517023372023,  0.041343709705387 ]
  mass: 12.010700
- symbol: C # 211
  coordinates: [  0.458370758213221,  0.791640180331187,  0.958305578347244 ]
  mass: 12.010700
- symbol: C # 212
  coordinates: [  0.541476824789803,  0.874726347415437,  0.041392186581143 ]
  mass: 12.010700
- symbol: C # 213
  coordinates: [  0.458201491192737,  0.957688305040029,  0.124354024433094 ]
  mass: 12.010700
- symbol: C # 214
  coordinates: [  0.042145743735715,  0.708314124441841,  0.708305650345446 ]
  mass: 12.010700
- symbol: C # 215
  coordinates: [  0.875262303098407,  0.708596360232644,  0.875262306219559 ]
  mass: 12.010700

phonon:
- q-position: [    0.0000000,    0.0000000,    0.0000000 ]
  distance:    0.0000000
  band:
  - # 1
    frequency:   -0.1094406218
  - # 2
    frequency:   -0.1094405848
  - # 3
    frequency:   -0.0831344222
  - # 4
    frequency:   10.5499259148
  - # 5
    frequency:   10.5499290204
  - # 6
    frequency:   10.6650035040
  - # 7
    frequency:   10.9809755742
  - # 8
    frequency:   10.9809785915
  - # 9
    frequency:   10.9949173342
  - # 10
    frequency:   11.0225362167
  - # 11
    frequency:   11.0529734690
  - # 12
    frequency:   11.0529758976
  - # 13
    frequency:   11.0973404942
  - # 14
    frequency:   11.0973415668
  - # 15
    frequency:   11.1291730699
  - # 16
    frequency:   12.4767128078
  - # 17
    frequency:   12.4767138884
  - # 18
    frequency:   13.4613744006
  - # 19
    frequency:   13.4613783473
  - # 20
    frequency:   13.5152600251
  - # 21
    frequency:   13.5152612420
  - # 22
    frequency:   13.5186564661
  - # 23
    frequency:   13.5446370190
  - # 24
    frequency:   13.5788711993
  - # 25
    frequency:   13.5788717082
  - # 26
    frequency:   13.5880269229
  - # 27
    frequency:   13.6001914443
  - # 28
    frequency:   14.0918073666
  - # 29
    frequency:   14.0918100359
  - # 30
    frequency:   14.1074937877
  - # 31
    frequency:   14.1074977586
  - # 32
    frequency:   14.1362526427
  - # 33
    frequency:   14.1456004788
  - # 34
    frequency:   14.2597938745
  - # 35
    frequency:   14.2597969553
  - # 36
    frequency:   14.3548366258
  - # 37
    frequency:   14.3597378787
  - # 38
    frequency:   14.3608569104
  - # 39
    frequency:   14.3608570255
  - # 40
    frequency:   14.3769807899
  - # 41
    frequency:   14.3769829818
  - # 42
    frequency:   14.4208654464
  - # 43
    frequency:   14.4208664436
  - # 44
    frequency:   15.0667928303
  - # 45
    frequency:   15.2977242785
  - # 46
    frequency:   15.2977266410
  - # 47
    frequency:   15.4038139320
  - # 48
    frequency:   15.4744992092
  - # 49
    frequency:   15.4745020012
  - # 50
    frequency:   15.7011053108
  - # 51
    frequency:   15.7011080895
  - # 52
    frequency:   15.7211547346
  - # 53
    frequency:   15.9444915455
  - # 54
    frequency:   15.9490422603
  - # 55
    frequency:   15.9550002303
  - # 56
    frequency:   15.9550020043
  - # 57
    frequency:   15.9612634731
  - # 58
    frequency:   15.9612657473
  - # 59
    frequency:   16.0411994655
  - # 60
    frequency:   16.0412023638
  - # 61
    frequency:   16.0882028209
  - # 62
    frequency:   17.4938351572
  - # 63
    frequency:   17.4938378634
  - # 64
    frequency:   17.5224997104
  - # 65
    frequency:   17.8302337488
  - # 66
    frequency:   17.8302371505
  - # 67
    frequency:   17.9369884008
  - # 68
    frequency:   18.1563472988
  - # 69
    frequency:   18.1563498330
  - # 70
    frequency:   18.1891183507
  - # 71
    frequency:   18.3474130717
  - # 72
    frequency:   18.3474142873
  - # 73
    frequency:   18.3719430807
  - # 74
    frequency:   18.3719468227
  - # 75
    frequency:   18.3728764745
  - # 76
    frequency:   18.3944065299
  - # 77
    frequency:   18.4204339329
  - # 78
    frequency:   18.4204351982
  - # 79
    frequency:   18.4363583923
  - # 80
    frequency:   18.4427651105
  - # 81
    frequency:   18.4427684841
  - # 82
    frequency:   18.4436080091
  - # 83
    frequency:   18.4519434276
  - # 84
    frequency:   18.4626629077
  - # 85
    frequency:   18.4738443560
  - # 86
    frequency:   18.4738461070
  - # 87
    frequency:   19.0409498023
  - # 88
    frequency:   19.0409531698
  - # 89
    frequency:   19.1342475273
  - # 90
    frequency:   19.4167537410
  - # 91
    frequency:   19.4167584593
  - # 92
    frequency:   19.4714548787
  - # 93
    frequency:   19.5174470528
  - # 94
    frequency:   19.5442252150
  - # 95
    frequency:   19.5442282862
  - # 96
    frequency:   19.5468930092
  - # 97
    frequency:   19.5685738538
  - # 98
    frequency:   19.5685779797
  - # 99
    frequency:   19.7056324439
  - # 100
    frequency:   19.7056327373
  - # 101
    frequency:   19.9779834158
  - # 102
    frequency:   19.9779868591
  - # 103
    frequency:   20.0162308758
  - # 104
    frequency:   20.3187934576
  - # 105
    frequency:   20.3187976037
  - # 106
    frequency:   20.3430097896
  - # 107
    frequency:   20.4074509651
  - # 108
    frequency:   20.4080668482
  - # 109
    frequency:   20.4080672691
  - # 110
    frequency:   20.4499205391
  - # 111
    frequency:   20.4499244216
  - # 112
    frequency:   20.4565446050
  - # 113
    frequency:   20.4565480145
  - # 114
    frequency:   20.5197326936
  - # 115
    frequency:   20.6966663431
  - # 116
    frequency:   20.6966664715
  - # 117
    frequency:   20.7091376266
  - # 118
    frequency:   20.7172839238
  - # 119
    frequency:   20.7588008387
  - # 120
    frequency:   20.7681583614
  - # 121
    frequency:   20.7681585572
  - # 122
    frequency:   20.7901535433
  - # 123
    frequency:   20.7901547927
  - # 124
    frequency:   20.8016258112
  - # 125