 vasp.5.4.4.18Apr17-6-g9f103f2a35 (build May 07 2022 11:18:47) complex          
  
 executed on             LinuxIFC date 2026.05.12  20:20:12
 running on   48 total cores
 distrk:  each k-point on   48 cores,    1 groups
 distr:  one band on NCORES_PER_BAND=  24 cores,    2 groups


--------------------------------------------------------------------------------------------------------


 INCAR:
 POTCAR:   PAW_PBE N 08Apr2002                    
 POTCAR:   PAW_PBE C 08Apr2002                    

 ----------------------------------------------------------------------------- 
|                                                                             |
|           W    W    AA    RRRRR   N    N  II  N    N   GGGG   !!!           |
|           W    W   A  A   R    R  NN   N  II  NN   N  G    G  !!!           |
|           W    W  A    A  R    R  N N  N  II  N N  N  G       !!!           |
|           W WW W  AAAAAA  RRRRR   N  N N  II  N  N N  G  GGG   !            |
|           WW  WW  A    A  R   R   N   NN  II  N   NN  G    G                |
|           W    W  A    A  R    R  N    N  II  N    N   GGGG   !!!           |
|                                                                             |
|      For optimal performance we recommend to set                            |
|        NCORE= 4 - approx SQRT( number of cores)                             |
|      NCORE specifies how many cores store one orbital (NPAR=cpu/NCORE).     |
|      This setting can  greatly improve the performance of VASP for DFT.     |
|      The default,   NCORE=1            might be grossly inefficient         |
|      on modern multi-core architectures or massively parallel machines.     |
|      Do your own testing !!!!                                               |
|      Unfortunately you need to use the default for GW and RPA calculations. |
|      (for HF NCORE is supported but not extensively tested yet)             |
|                                                                             |
 ----------------------------------------------------------------------------- 

 POTCAR:   PAW_PBE N 08Apr2002                    
   VRHFIN =N: s2p3                                                              
   LEXCH  = PE                                                                  
   EATOM  =   264.5486 eV,   19.4438 Ry                                         
                                                                                
   TITEL  = PAW_PBE N 08Apr2002                                                 
   LULTRA =        F    use ultrasoft PP ?                                      
   IUNSCR =        0    unscreen: 0-lin 1-nonlin 2-no                           
   RPACOR =     .000    partial core radius                                     
   POMASS =   14.001; ZVAL   =    5.000    mass and valenz                      
   RCORE  =    1.500    outmost cutoff radius                                   
   RWIGS  =    1.400; RWIGS  =     .741    wigner-seitz radius (au A)           
   ENMAX  =  400.000; ENMIN  =  300.000 eV                                      
   ICORE  =        2    local potential                                         
   LCOR   =        T    correct aug charges                                     
   LPAW   =        T    paw PP                                                  
   EAUG   =  627.112                                                            
   DEXC   =     .000                                                            
   RMAX   =    2.247    core radius for proj-oper                               
   RAUG   =    1.300    factor for augmentation sphere                          
   RDEP   =    1.514    radius for radial grids                                 
   QCUT   =   -5.562; QGAM   =   11.124    optimization parameters              
                                                                                
   Description                                                                  
     l     E      TYP  RCUT    TYP  RCUT                                        
     0   .000     23  1.200                                                     
     0   .000     23  1.200                                                     
     1   .000     23  1.500                                                     
     1   .700     23  1.500                                                     
     2   .000      7  1.500                                                     
  local pseudopotential read in
  atomic valenz-charges read in
  non local Contribution for L=           0  read in
    real space projection operators read in
  non local Contribution for L=           0  read in
    real space projection operators read in
  non local Contribution for L=           1  read in
    real space projection operators read in
  non local Contribution for L=           1  read in
    real space projection operators read in
    PAW grid and wavefunctions read in
 
   number of l-projection  operators is LMAX  =           4
   number of lm-projection operators is LMMAX =           8
 
 POTCAR:   PAW_PBE C 08Apr2002                    
   VRHFIN =C: s2p2                                                              
   LEXCH  = PE                                                                  
   EATOM  =   147.1560 eV,   10.8157 Ry                                         
                                                                                
   TITEL  = PAW_PBE C 08Apr2002                                                 
   LULTRA =        F    use ultrasoft PP ?                                      
   IUNSCR =        0    unscreen: 0-lin 1-nonlin 2-no                           
   RPACOR =     .000    partial core radius                                     
   POMASS =   12.011; ZVAL   =    4.000    mass and valenz                      
   RCORE  =    1.500    outmost cutoff radius                                   
   RWIGS  =    1.630; RWIGS  =     .863    wigner-seitz radius (au A)           
   ENMAX  =  400.000; ENMIN  =  300.000 eV                                      
   ICORE  =        2    local potential                                         
   LCOR   =        T    correct aug charges                                     
   LPAW   =        T    paw PP                                                  
   EAUG   =  644.873                                                            
   DEXC   =     .000                                                            
   RMAX   =    2.266    core radius for proj-oper                               
   RAUG   =    1.300    factor for augmentation sphere                          
   RDEP   =    1.501    radius for radial grids                                 
   RDEPT  =    1.300    core radius for aug-charge                              
   QCUT   =   -5.516; QGAM   =   11.032    optimization parameters              
                                                                                
   Description                                                                  
     l     E      TYP  RCUT    TYP  RCUT                                        
     0   .000     23  1.200                                                     
     0   .000     23  1.200                                                     
     1   .000     23  1.500                                                     
     1  2.500     23  1.500                                                     
     2   .000      7  1.500                                                     
  local pseudopotential read in
  atomic valenz-charges read in
  non local Contribution for L=           0  read in
    real space projection operators read in
  non local Contribution for L=           0  read in
    real space projection operators read in
  non local Contribution for L=           1  read in
    real space projection operators read in
  non local Contribution for L=           1  read in
    real space projection operators read in
    PAW grid and wavefunctions read in
 
   number of l-projection  operators is LMAX  =           4
   number of lm-projection operators is LMMAX =           8
 
 Optimization of the real space projectors (new method)

 maximal supplied QI-value         = 25.13
 optimisation between [QCUT,QGAM] = [ 11.56, 23.12] = [ 37.43,149.72] Ry 
 Optimized for a Real-space Cutoff    1.25 Angstroem

   l    n(q)    QCUT    max X(q) W(low)/X(q) W(high)/X(q)  e(spline) 
   0      9    11.561     4.511    0.30E-04    0.28E-04    0.49E-07
   0      9    11.561    37.799    0.51E-04    0.16E-03    0.37E-06
   1      8    11.561     2.478    0.16E-04    0.39E-04    0.64E-07
   1      8    11.561    11.620    0.47E-03    0.29E-03    0.82E-06
 Optimization of the real space projectors (new method)

 maximal supplied QI-value         = 25.13
 optimisation between [QCUT,QGAM] = [ 11.56, 23.12] = [ 37.43,149.72] Ry 
 Optimized for a Real-space Cutoff    1.01 Angstroem

   l    n(q)    QCUT    max X(q) W(low)/X(q) W(high)/X(q)  e(spline) 
   0      7    11.561     5.582    0.37E-04    0.15E-03    0.14E-07
   0      7    11.561    69.432    0.33E-03    0.93E-03    0.20E-06
   1      6    11.561     2.780    0.26E-04    0.68E-04    0.38E-07
   1      6    11.561     4.549    0.40E-03    0.28E-03    0.11E-06
 PAW_PBE N 08Apr2002                    :
 energy of atom  1       EATOM= -264.5486
 kinetic energy error for atom=    0.0125 (will be added to EATOM!!)
 PAW_PBE C 08Apr2002                    :
 energy of atom  2       EATOM= -147.1560
 kinetic energy error for atom=    0.0071 (will be added to EATOM!!)
 
 
 POSCAR: x3                                      
  positions in direct lattice
  velocities in cartesian coordinates
 exchange correlation table for  LEXCH =        8
   RHO(1)=    0.500       N(1)  =     2000
   RHO(2)=  100.500       N(2)  =     4000
 


--------------------------------------------------------------------------------------------------------


 ion  position               nearest neighbor table
   1  0.549  0.383  0.549- 104 1.47   7 1.47  64 1.47
   2  0.958  0.792  0.125- 136 1.54 133 1.54  16 1.54  63 1.54
   3  0.375  0.542  0.875-  42 1.54   9 1.54  40 1.54  27 1.54
   4  0.292  0.125  0.791- 126 1.54 171 1.54  31 1.54 158 1.54
   5  0.293  0.624  0.625- 204 1.54   6 1.54 198 1.55  47 1.55
   6  0.375  0.708  0.708- 172 1.54   9 1.54 168 1.54   5 1.54
   7  0.462  0.458  0.625-   1 1.47   8 1.54  33 1.55  47 1.55
   8  0.542  0.543  0.710-   9 1.53   7 1.54  74 1.54  72 1.54
   9  0.459  0.626  0.792-   8 1.53  10 1.54   6 1.54   3 1.54
  10  0.542  0.709  0.875-   9 1.54 211 1.54  28 1.54  58 1.54
  11  0.625  0.791  0.125-  59 1.54  12 1.54  45 1.55 212 1.55
  12  0.708  0.875  0.208-  11 1.54  21 1.54  23 1.54  17 1.54
  13  0.625  0.959  0.958-  53 1.54  14 1.54 175 1.55 212 1.55
  14  0.708  0.042  0.042-  13 1.54  86 1.54  90 1.54  17 1.54
  15  0.792  0.792  0.959-  16 1.54 215 1.54  59 1.54  53 1.54
  16  0.875  0.875  0.042-  15 1.54  17 1.54 137 1.54   2 1.54
  17  0.791  0.958  0.125-  18 1.54  16 1.54  14 1.54  12 1.54
  18  0.875  0.042  0.208-  17 1.54 145 1.54 135 1.54  98 1.54
  19  0.625  0.792  0.458-  29 1.54  67 1.54 165 1.54  20 1.54
  20  0.708  0.875  0.542-  25 1.54  19 1.54  79 1.54  82 1.54
  21  0.625  0.958  0.292- 165 1.54  12 1.54 189 1.54  22 1.54
  22  0.708  0.041  0.375-  25 1.54  98 1.54  21 1.54  94 1.56
  23  0.791  0.792  0.292-  63 1.54  12 1.54  24 1.54  67 1.54
  24  0.875  0.875  0.375- 143 1.54  25 1.54  23 1.54 145 1.54
  25  0.792  0.958  0.458-  22 1.54  20 1.54  24 1.54  26 1.54
  26  0.874  0.042  0.541- 113 1.54  25 1.54 153 1.55 105 1.55
  27  0.293  0.458  0.791- 204 1.54   3 1.54 128 1.55  33 1.55
  28  0.625  0.792  0.792-  53 1.54  75 1.54 173 1.54  10 1.54
  29  0.542  0.708  0.542- 172 1.54  19 1.54  74 1.54  51 1.55
  30  0.541  0.540  0.377-  51 1.53  50 1.55  66 1.55  64 1.55
  31  0.375  0.208  0.875- 180 1.54 178 1.54   4 1.54  36 1.54
  32  0.293  0.291  0.623- 185 1.50 120 1.54  33 1.55 126 1.56
  33  0.377  0.374  0.707-  36 1.53  32 1.55  27 1.55   7 1.55
  34  0.457  0.126  0.623- 185 1.50 167 1.54  35 1.55 171 1.56
  35  0.541  0.210  0.707-  36 1.53  34 1.55 102 1.55 104 1.55
  36  0.459  0.292  0.791-  33 1.53  35 1.53  31 1.54  37 1.55
  37  0.542  0.375  0.875-  88 1.54  42 1.54  72 1.54  36 1.55
  38  0.292  0.458  0.125- 179 1.54 161 1.54 112 1.54  39 1.54
  39  0.375  0.542  0.208-  44 1.54  48 1.54  38 1.54  50 1.56
  40  0.292  0.625  0.958- 206 1.54 161 1.54  41 1.54   3 1.54
  41  0.375  0.708  0.042- 211 1.54  44 1.54  40 1.54 207 1.54
  42  0.458  0.458  0.958-  37 1.54   3 1.54 179 1.54  43 1.54
  43  0.542  0.542  0.042-  44 1.54  42 1.54  56 1.54  58 1.54
  44  0.458  0.625  0.125-  39 1.54  43 1.54  41 1.54  45 1.54
  45  0.541  0.708  0.209- 164 1.54  44 1.54  11 1.55  66 1.55
  46  0.293  0.456  0.457- 107 1.50 120 1.54  47 1.55 196 1.56
  47  0.377  0.540  0.541-  51 1.53  46 1.55   5 1.55   7 1.55
  48  0.292  0.625  0.292-  39 1.54 196 1.54  49 1.54 190 1.54
  49  0.375  0.708  0.375- 188 1.54 164 1.54  48 1.54  51 1.54
  50  0.457  0.456  0.293- 107 1.50 183 1.54  30 1.55  39 1.56
  51  0.459  0.624  0.459-  30 1.53  47 1.53  49 1.54  29 1.55
  52  0.545  0.203  0.369- 106 1.49  96 1.50  94 1.50
  53  0.708  0.875  0.875-  28 1.54  13 1.54  84 1.54  15 1.54
  54  0.708  0.042  0.708- 102 1.54 105 1.54  79 1.54  84 1.55
  55  0.875  0.375  0.875-  78 1.54 134 1.54  60 1.54 199 1.54
  56  0.624  0.458  0.126-  57 1.54  89 1.54  43 1.54 183 1.54
  57  0.708  0.541  0.209-  66 1.54  68 1.54  56 1.54  62 1.55
  58  0.625  0.625  0.959-  59 1.54  73 1.54  43 1.54  10 1.54
  59  0.708  0.708  0.042-  58 1.54  11 1.54  62 1.54  15 1.54
  60  0.792  0.458  0.959-  61 1.54  73 1.54  89 1.54  55 1.54
  61  0.875  0.542  0.042-  60 1.54 129 1.54  62 1.54 131 1.54
  62  0.791  0.625  0.126-  63 1.54  61 1.54  59 1.54  57 1.55
  63  0.875  0.708  0.209-  62 1.54  23 1.54 193 1.54   2 1.54
  64  0.625  0.458  0.462-   1 1.47  65 1.54  97 1.55  30 1.55
  65  0.710  0.543  0.542-  70 1.53  64 1.54  74 1.54  76 1.54
  66  0.625  0.624  0.293-  57 1.54  67 1.54  45 1.55  30 1.55
  67  0.708  0.708  0.375-  19 1.54  70 1.54  23 1.54  66 1.54
  68  0.791  0.458  0.293-  57 1.54  69 1.54  93 1.55  97 1.55
  69  0.875  0.542  0.375- 191 1.54  70 1.54 193 1.54  68 1.54
  70  0.792  0.626  0.459-  65 1.53  71 1.54  67 1.54  69 1.54
  71  0.875  0.709  0.542-  70 1.54 143 1.54  82 1.54 202 1.54
  72  0.626  0.459  0.793-  73 1.54  37 1.54  81 1.54   8 1.54
  73  0.709  0.542  0.876-  72 1.54  58 1.54  60 1.54 201 1.54
  74  0.626  0.626  0.626-  75 1.54  29 1.54  65 1.54   8 1.54
  75  0.709  0.709  0.709-  74 1.54  28 1.54  82 1.54 201 1.54
  76  0.793  0.459  0.626-  77 1.54 101 1.54  81 1.54  65 1.54
  77  0.876  0.542  0.709-  76 1.54 202 1.54 199 1.54 201 1.54
  78  0.792  0.292  0.792-  81 1.53  55 1.54  80 1.54 103 1.54
  79  0.624  0.959  0.624-  54 1.54  20 1.54 173 1.54 167 1.54
  80  0.875  0.209  0.708- 123 1.54  78 1.54 121 1.54 105 1.54
  81  0.710  0.376  0.710-  78 1.53 104 1.54  72 1.54  76 1.54
  82  0.792  0.792  0.625-  83 1.54  75 1.54  20 1.54  71 1.54
  83  0.875  0.875  0.708-  82 1.54 153 1.54  84 1.54 151 1.54
  84  0.791  0.959  0.791-  85 1.54  83 1.54  53 1.54  54 1.55
  85  0.875  0.042  0.875-  84 1.54  90 1.54 121 1.54 137 1.54
  86  0.625  0.125  0.125- 181 1.54  14 1.54 189 1.54  87 1.54
  87  0.708  0.209  0.208-  92 1.54  98 1.54  86 1.54  96 1.56
  88  0.625  0.292  0.958-  37 1.54 103 1.54 181 1.54  89 1.54
  89  0.708  0.375  0.042-  92 1.54  88 1.54  56 1.54  60 1.54
  90  0.791  0.125  0.958-  85 1.54  14 1.54  91 1.54 103 1.54
  91  0.875  0.208  0.042- 134 1.54  92 1.54  90 1.54 135 1.54
  92  0.792  0.292  0.125-  87 1.54  89 1.54  91 1.54  93 1.54
  93  0.874  0.375  0.209- 115 1.54  92 1.54 129 1.55  68 1.55
  94  0.623  0.126  0.457-  52 1.50 167 1.54  95 1.55  22 1.56
  95  0.707  0.210  0.541- 100 1.53  94 1.55 105 1.55 104 1.55
  96  0.623  0.291  0.293-  52 1.50 183 1.54  97 1.55  87 1.56
  97  0.707  0.374  0.377- 100 1.53  96 1.55  68 1.55  64 1.55
  98  0.791  0.125  0.292-  87 1.54  22 1.54  99 1.54  18 1.54
  99  0.875  0.208  0.375- 113 1.54 115 1.54  98 1.54 100 1.54
 100  0.791  0.292  0.459-  97 1.53  95 1.53  99 1.54 101 1.55
 101  0.875  0.375  0.542- 123 1.54 191 1.54  76 1.54 100 1.55
 102  0.625  0.126  0.791-  54 1.54 103 1.54 175 1.55  35 1.55
 103  0.708  0.209  0.875-  88 1.54  78 1.54  90 1.54 102 1.54
 104  0.625  0.296  0.625-   1 1.47  81 1.54  95 1.55  35 1.55
 105  0.791  0.126  0.625-  54 1.54  80 1.54  26 1.55  95 1.55
 106  0.459  0.125  0.292-  52 1.49 177 1.54 163 1.54 189 1.55
 107  0.369  0.378  0.369- 108 1.49  46 1.50  50 1.50
 108  0.292  0.292  0.292- 107 1.49 177 1.54 118 1.54 112 1.55
 109  0.125  0.125  0.958- 110 1.54 158 1.54 122 1.54 138 1.54
 110  0.208  0.208  0.041- 109 1.54 111 1.54 176 1.54 178 1.54
 111  0.124  0.292  0.124- 112 1.53 132 1.54 110 1.54 159 1.54
 112  0.207  0.374  0.207- 111 1.53 195 1.54  38 1.54 108 1.55
 113  0.958  0.125  0.458-  26 1.54  99 1.54 114 1.54 146 1.54
 114  0.042  0.208  0.541- 125 1.54 113 1.54 123 1.54 119 1.54
 115  0.958  0.292  0.292-  93 1.54  99 1.54 116 1.54 159 1.54
 116  0.042  0.375  0.375- 195 1.54 115 1.54 191 1.54 119 1.54
 117  0.125  0.125  0.292- 118 1.54 142 1.54 146 1.54 159 1.54
 118  0.209  0.208  0.375- 119 1.54 117 1.54 184 1.54 108 1.54
 119  0.125  0.291  0.458- 118 1.54 120 1.54 116 1.54 114 1.54
 120  0.209  0.374  0.541-  46 1.54  32 1.54 119 1.54 203 1.54
 121  0.958  0.125  0.791-  85 1.54 154 1.54 122 1.54  80 1.54
 122  0.042  0.208  0.875- 134 1.54 127 1.54 121 1.54 109 1.54
 123  0.958  0.292  0.625- 101 1.54  80 1.54 114 1.54 124 1.54
 124  0.042  0.375  0.708- 127 1.54 123 1.54 203 1.54 199 1.54
 125  0.125  0.125  0.625- 114 1.54 154 1.54 150 1.54 126 1.54
 126  0.208  0.209  0.708- 127 1.54   4 1.54 125 1.54  32 1.56
 127  0.125  0.292  0.792- 126 1.54 124 1.54 122 1.54 128 1.54
 128  0.209  0.375  0.874- 178 1.54 127 1.54 160 1.55  27 1.55
 129  0.958  0.458  0.125-  61 1.54 130 1.54  93 1.55 132 1.55
 130  0.042  0.541  0.208- 129 1.54 195 1.54 193 1.54 162 1.54
 131  0.959  0.625  0.959- 133 1.54 215 1.54 200 1.54  61 1.54
 132  0.041  0.375  0.041- 111 1.54 134 1.54 129 1.55 160 1.55
 133  0.042  0.708  0.042- 131 1.54 162 1.54   2 1.54 139 1.54
 134  0.958  0.292  0.958- 132 1.54  55 1.54 122 1.54  91 1.54
 135  0.958  0.125  0.125- 159 1.54  18 1.54  91 1.54 138 1.54
 136  0.042  0.875  0.208-   2 1.54 145 1.54 147 1.54 141 1.54
 137  0.958  0.958  0.958- 138 1.54 152 1.54  16 1.54  85 1.54
 138  0.042  0.042  0.042- 137 1.54 135 1.54 109 1.54 141 1.54
 139  0.125  0.792  0.958- 140 1.54 133 1.54 152 1.54 206 1.54
 140  0.208  0.875  0.042- 139 1.54 209 1.54 207 1.54 141 1.54
 141  0.125  0.958  0.125- 142 1.54 140 1.54 136 1.54 138 1.54
 142  0.208  0.042  0.208- 141 1.54 186 1.54 117 1.54 176 1.54
 143  0.958  0.792  0.458- 144 1.54  71 1.54  24 1.54 194 1.54
 144  0.041  0.875  0.541- 149 1.54 143 1.54 153 1.55 155 1.55
 145  0.958  0.958  0.292- 146 1.54  18 1.54  24 1.54 136 1.54
 146  0.041  0.042  0.375- 145 1.54 149 1.54 117 1.54 113 1.54
 147  0.125  0.791  0.292- 148 1.54 190 1.54 194 1.54 136 1.54
 148  0.208  0.875  0.375- 147 1.54 149 1.54 186 1.54 188 1.54
 149  0.124  0.958  0.458- 150 1.53 144 1.54 146 1.54 148 1.54
 150  0.207  0.041  0.541- 149 1.53 170 1.54 125 1.54 184 1.55
 151  0.959  0.792  0.792- 152 1.54 215 1.54 214 1.54  83 1.54
 152  0.042  0.875  0.875- 151 1.54 157 1.54 137 1.54 139 1.54
 153  0.958  0.959  0.625-  83 1.54 154 1.54  26 1.55 144 1.55
 154  0.042  0.042  0.708- 153 1.54 125 1.54 121 1.54 157 1.54
 155  0.125  0.791  0.625- 214 1.54 156 1.54 198 1.55 144 1.55
 156  0.208  0.875  0.708- 155 1.54 170 1.54 168 1.54 157 1.54
 157  0.125  0.958  0.791- 158 1.54 152 1.54 154 1.54 156 1.54
 158  0.208  0.042  0.875- 157 1.54 209 1.54 109 1.54   4 1.54
 159  0.041  0.208  0.208- 135 1.54 111 1.54 117 1.54 115 1.54
 160  0.125  0.458  0.958- 200 1.54 161 1.54 128 1.55 132 1.55
 161  0.208  0.541  0.042- 160 1.54  38 1.54  40 1.54 162 1.54
 162  0.125  0.625  0.125- 190 1.54 133 1.54 161 1.54 130 1.54
 163  0.375  0.042  0.375- 166 1.54 186 1.54 184 1.54 106 1.54
 164  0.458  0.791  0.292-  45 1.54  49 1.54 165 1.54 208 1.54
 165  0.541  0.875  0.375-  21 1.54 164 1.54  19 1.54 166 1.54
 166  0.458  0.959  0.458- 163 1.54 167 1.54 165 1.54 187 1.54
 167  0.541  0.043  0.541-  34 1.54  94 1.54 166 1.54  79 1.54
 168  0.292  0.792  0.791- 206 1.54 156 1.54 169 1.54   6 1.54
 169  0.375  0.875  0.875- 211 1.54 174 1.54 168 1.54 209 1.54
 170  0.292  0.958  0.625- 187 1.54 156 1.54 150 1.54 171 1.54
 171  0.375  0.041  0.708- 174 1.54   4 1.54 170 1.54  34 1.56
 172  0.458  0.792  0.625-  29 1.54   6 1.54 187 1.54 173 1.54
 173  0.542  0.875  0.708- 174 1.54 172 1.54  79 1.54  28 1.54
 174  0.458  0.958  0.792- 171 1.54 173 1.54 169 1.54 175 1.54
 175  0.541  0.042  0.874- 180 1.54 174 1.54  13 1.55 102 1.55
 176  0.292  0.125  0.125- 177 1.54 142 1.54 210 1.54 110 1.54
 177  0.375  0.208  0.209- 182 1.54 176 1.54 106 1.54 108 1.54
 178  0.292  0.292  0.958- 128 1.54  31 1.54 179 1.54 110 1.54
 179  0.375  0.375  0.042-  38 1.54 178 1.54  42 1.54 182 1.54
 180  0.458  0.125  0.958- 175 1.54  31 1.54 181 1.54 210 1.54
 181  0.541  0.208  0.042-  86 1.54 180 1.54  88 1.54 182 1.54
 182  0.458  0.291  0.125- 177 1.54 183 1.54 181 1.54 179 1.54
 183  0.541  0.374  0.209-  50 1.54  96 1.54 182 1.54  56 1.54
 184  0.292  0.125  0.459- 185 1.49 118 1.54 163 1.54 150 1.55
 185  0.369  0.203  0.545- 184 1.49  32 1.50  34 1.50
 186  0.292  0.958  0.292- 163 1.54 142 1.54 208 1.54 148 1.54
 187  0.375  0.875  0.541- 170 1.54 188 1.54 172 1.54 166 1.54
 188  0.292  0.791  0.458- 198 1.54  49 1.54 187 1.54 148 1.54
 189  0.541  0.041  0.207- 213 1.53  21 1.54  86 1.54 106 1.55
 190  0.208  0.708  0.208- 162 1.54 147 1.54 207 1.54  48 1.54
 191  0.958  0.458  0.458- 101 1.54  69 1.54 116 1.54 192 1.54
 192  0.042  0.542  0.542- 197 1.54 191 1.54 203 1.54 202 1.54
 193  0.958  0.625  0.292-  63 1.54 130 1.54 194 1.54  69 1.54
 194  0.042  0.708  0.375- 143 1.54 197 1.54 193 1.54 147 1.54
 195  0.125  0.458  0.292- 116 1.54 130 1.54 112 1.54 196 1.54
 196  0.208  0.542  0.375- 197 1.54  48 1.54 195 1.54  46 1.56
 197  0.125  0.625  0.458- 196 1.54 192 1.54 194 1.54 198 1.54
 198  0.209  0.708  0.541- 188 1.54 197 1.54 155 1.55   5 1.55
 199  0.959  0.458  0.792- 200 1.54  77 1.54 124 1.54  55 1.54
 200  0.042  0.542  0.875- 199 1.54 160 1.54 205 1.54 131 1.54
 201  0.792  0.625  0.792- 215 1.54  75 1.54  77 1.54  73 1.54
 202  0.959  0.625  0.625- 214 1.54  77 1.54 192 1.54  71 1.54
 203  0.126  0.458  0.624- 204 1.54 124 1.54 192 1.54 120 1.54
 204  0.209  0.541  0.708-   5 1.54  27 1.54 203 1.54 205 1.55
 205  0.126  0.625  0.791- 206 1.54 200 1.54 214 1.54 204 1.55
 206  0.209  0.708  0.875- 205 1.54 168 1.54  40 1.54 139 1.54
 207  0.292  0.791  0.125- 208 1.54 190 1.54  41 1.54 140 1.54
 208  0.375  0.875  0.208- 207 1.54 213 1.54 186 1.54 164 1.54
 209  0.292  0.958  0.958- 210 1.54 158 1.54 169 1.54 140 1.54
 210  0.375  0.042  0.041- 209 1.54 213 1.54 176 1.54 180 1.54
 211  0.458  0.792  0.958- 212 1.54  10 1.54 169 1.54  41 1.54
 212  0.541  0.875  0.041- 213 1.54 211 1.54  13 1.55  11 1.55
 213  0.458  0.958  0.124- 189 1.53 212 1.54 210 1.54 208 1.54
 214  0.042  0.708  0.708- 202 1.54 155 1.54 205 1.54 151 1.54
 215  0.875  0.709  0.875- 201 1.54 131 1.54  15 1.54 151 1.54
 

IMPORTANT INFORMATION: All symmetrisations will be switched off!
NOSYMM: (Re-)initialisation of all symmetry stuff for point group C_1.

 
 
 KPOINTS: Num irrep kpoints: 1                    

Automatic generation of k-mesh.
Space group operators:
 irot       det(A)        alpha          n_x          n_y          n_z        tau_x        tau_y        tau_z
    1     1.000000     0.000001     1.000000     0.000000     0.000000     0.000000     0.000000     0.000000
 
 Subroutine IBZKPT returns following result:
 ===========================================
 
 Found      1 irreducible k-points:
 
 Following reciprocal coordinates:
            Coordinates               Weight
  0.000000  0.000000  0.000000      1.000000
 
 Following cartesian coordinates:
            Coordinates               Weight
  0.000000  0.000000  0.000000      1.000000
 
 
 Subroutine IBZKPT_HF returns following result:
 ==============================================
 
 Found      1 k-points in 1st BZ
 the following      1 k-points will be used (e.g. in the exchange kernel)
 Following reciprocal coordinates:   # in IRBZ
  0.000000  0.000000  0.000000    1.00000000   1 t-inv F


--------------------------------------------------------------------------------------------------------




 Dimension of arrays:
   k-points           NKPTS =      1   k-points in BZ     NKDIM =      1   number of bands    NBANDS=    648
   number of dos      NEDOS =    301   number of ions     NIONS =    215
   non local maximal  LDIM  =      4   non local SUM 2l+1 LMDIM =      8
   total plane-waves  NPLWV = 216000
   max r-space proj   IRMAX =   1489   max aug-charges    IRDMAX=   2380
   dimension x,y,z NGX =    60 NGY =   60 NGZ =   60
   dimension x,y,z NGXF=   120 NGYF=  120 NGZF=  120
   support grid    NGXF=   120 NGYF=  120 NGZF=  120
   ions per type =               1 214
   NGX,Y,Z   is equivalent  to a cutoff of   9.34,  9.34,  9.34 a.u.
   NGXF,Y,Z  is equivalent  to a cutoff of  18.68, 18.68, 18.68 a.u.

 SYSTEM =  unknown system                          
 POSCAR =  x3                                      

 Startparameter for this run:
   NWRITE =      2    write-flag & timer
   PREC   = normal    normal or accurate (medium, high low for compatibility)
   ISTART =      1    job   : 0-new  1-cont  2-samecut
   ICHARG =      0    charge: 1-file 2-atom 10-const
   ISPIN  =      2    spin polarized calculation?
   LNONCOLLINEAR =      F non collinear calculations
   LSORBIT =      F    spin-orbit coupling
   INIWAV =      1    electr: 0-lowe 1-rand  2-diag
   LASPH  =      T    aspherical Exc in radial PAW
   METAGGA=      F    non-selfconsistent MetaGGA calc.

 Electronic Relaxation 1
   ENCUT  =  520.0 eV  38.22 Ry    6.18 a.u.  19.86 19.86 19.86*2*pi/ulx,y,z
   ENINI  =  520.0     initial cutoff
   ENAUG  =  644.9 eV  augmentation charge cutoff
   NELM   =    100;   NELMIN=  2; NELMDL=  0     # of ELM steps 
   EDIFF  = 0.1E-04   stopping-criterion for ELM
   LREAL  =      T    real-space projection
   NLSPLINE    = F    spline interpolate recip. space projectors
   LCOMPAT=      F    compatible to vasp.4.4
   GGA_COMPAT  = T    GGA compatible to vasp.4.4-vasp.4.6
   LMAXPAW     = -100 max onsite density
   LMAXMIX     =    2 max onsite mixed and CHGCAR
   VOSKOWN=      0    Vosko Wilk Nusair interpolation
   ROPT   =   -0.00050  -0.00050
 Ionic relaxation
   EDIFFG = -.1E-01   stopping-criterion for IOM
   NSW    =    500    number of steps for IOM
   NBLOCK =      1;   KBLOCK =    500    inner block; outer block 
   IBRION =      2    ionic relax: 0-MD 1-quasi-New 2-CG
   NFREE  =      1    steps in history (QN), initial steepest desc. (CG)
   ISIF   =      2    stress and relaxation
   IWAVPR =     11    prediction:  0-non 1-charg 2-wave 3-comb
   ISYM   =     -1    0-nonsym 1-usesym 2-fastsym
   LCORR  =      T    Harris-Foulkes like correction to forces

   POTIM  = 0.5000    time-step for ionic-motion
   TEIN   =    0.0    initial temperature
   TEBEG  =    0.0;   TEEND  =   0.0 temperature during run
   SMASS  =  -3.00    Nose mass-parameter (am)
   estimated Nose-frequenzy (Omega)   =  0.10E-29 period in steps =****** mass=  -0.261E-26a.u.
   SCALEE = 1.0000    scale energy and forces
   NPACO  =    256;   APACO  = 16.0  distance and # of slots for P.C.
   PSTRESS=    0.0 pullay stress

  Mass of Ions in am
   POMASS =  14.00 12.01
  Ionic Valenz
   ZVAL   =   5.00  4.00
  Atomic Wigner-Seitz radii
   RWIGS  =  -1.00 -1.00
  virtual crystal weights 
   VCA    =   1.00  1.00
   NELECT =     862.0000    total number of electrons
   NUPDOWN=      -1.0000    fix difference up-down

 DOS related values:
   EMIN   =  10.00;   EMAX   =-10.00  energy-range for DOS
   EFERMI =   0.00
   ISMEAR =    -2;   SIGMA  =   0.10  broadening in eV -4-tet -1-fermi 0-gaus

 Electronic relaxation 2 (details)
   IALGO  =     38    algorithm
   LDIAG  =      T    sub-space diagonalisation (order eigenvalues)
   LSUBROT=      F    optimize rotation matrix (better conditioning)
   TURBO    =      0    0=normal 1=particle mesh
   IRESTART =      0    0=no restart 2=restart with 2 vectors
   NREBOOT  =      0    no. of reboots
   NMIN     =      0    reboot dimension
   EREF     =   0.00    reference energy to select bands
   IMIX   =      1    mixing-type and parameters
     AMIX     =   0.40;   BMIX     =  1.00
     AMIX_MAG =   1.60;   BMIX_MAG =  1.00
     AMIN     =   0.10
     WC   =   100.;   INIMIX=   1;  MIXPRE=   1;  MAXMIX= -45

 Intra band minimization:
   WEIMIN = 0.0010     energy-eigenvalue tresh-hold
   EBREAK =  0.39E-08  absolut break condition
   DEPER  =   0.30     relativ break condition  

   TIME   =   0.40     timestep for ELM

  volume/ion in A,a.u.               =       5.67        38.26
  Fermi-wavevector in a.u.,A,eV,Ry     =   1.458529  2.756220 28.943770  2.127307
  Thomas-Fermi vector in A             =   2.575203
 
 Write flags
   LWAVE        =      T    write WAVECAR
   LDOWNSAMPLE  =      F    k-point downsampling of WAVECAR
   LCHARG       =      T    write CHGCAR
   LVTOT        =      F    write LOCPOT, total local potential
   LVHAR        =      F    write LOCPOT, Hartree potential only
   LELF         =      F    write electronic localiz. function (ELF)
   LORBIT       =     11    0 simple, 1 ext, 2 COOP (PROOUT), +10 PAW based schemes


 Dipole corrections
   LMONO  =      F    monopole corrections only (constant potential shift)
   LDIPOL =      F    correct potential (dipole corrections)
   IDIPOL =      0    1-x, 2-y, 3-z, 4-all directions 
   EPSILON=  1.0000000 bulk dielectric constant

 Exchange correlation treatment:
   GGA     =    --    GGA type
   LEXCH   =     8    internal setting for exchange type
   VOSKOWN=      0    Vosko Wilk Nusair interpolation
   EXXOEP  =     0    0=HF, 1=EXX-LHF (local Hartree Fock) 2=EXX OEP
   LHFCALC =     T    Hartree Fock is set to
   LSYMGRAD=     F    symmetrize gradient (conserves proper symmetry)
   PRECFOCK=normal    Normal, Fast or Accurate (Low or Medium for compatibility)
   LRHFCALC=     F    long range Hartree Fock
   LRSCOR  =     F    long range correlation only (use DFT for short range part)
   LTHOMAS =     F    Thomas Fermi screening in HF
   LMODELHF=     F    short range full HF, long range fraction AEXX
   ENCUT4O =  -1.0   cutoff for four orbital integrals eV
   LMAXFOCK=     4    L truncation for augmentation on plane wave grid
   LMAXFOCKAE=  -1    L truncation for all-electron charge restoration on plane wave grid
   NMAXFOCKAE=   1    number of basis functions for all-electron charge restoration
   LFOCKAEDFT=     F  apply the AE augmentation even for DFT
   NKREDX  =     1    reduce k-point grid by
   NKREDY  =     1    reduce k-point grid by
   NKREDZ  =     1    reduce k-point grid by
   SHIFTRED=     F    shift reduced grid of Gamma
   HFKIDENT=     F    idential grid for each k-point
   ODDONLY =     F    use only odd q-grid points
   EVENONLY=     F    use only even q-grid points
   HFALPHA =   -1.0000 decay constant for conv. correction
   MCALPHA =    0.0000 extent of test-charge in conv. correction in multipole expansion
   AEXX    =    0.2500 exact exchange contribution
   HFSCREEN=    0.2000 screening length (either q_TF or 0.3 A-1)
   HFSCREENC=   0.2000 screening length for correlation (either q_TF or 0.3 A-1)
   HFRCUT  =    0.0000 spherical cutoff for potential kernel
   ALDAX   =    0.7500 LDA exchange part
   AGGAX   =    0.7500 GGA exchange part
   ALDAC   =    1.0000 LDA correlation
   AGGAC   =    1.0000 GGA correlation
   ENCUTFOCK=  -1.0 apply spherical cutoff to Coloumb kernel
   NBANDSGWLOW=     1    first orbital included in HF term
   NBLOCK_FOCK=    64    blocking factor in FOCK_ACC
 Linear response parameters
   LEPSILON=     F    determine dielectric tensor
   LRPA    =     F    only Hartree local field effects (RPA)
   LNABLA  =     F    use nabla operator in PAW spheres
   LVEL    =     F    velocity operator in full k-point grid
   LINTERFAST=   F  fast interpolation
   KINTER  =     0    interpolate to denser k-point grid
   CSHIFT  =0.1000    complex shift for real part using Kramers Kronig
   OMEGAMAX=  -1.0    maximum frequency
   DEG_THRESHOLD= 0.2000000E-02 threshold for treating states as degnerate
   RTIME   =   -0.100 relaxation time in fs
  (WPLASMAI=    0.000 imaginary part of plasma frequency in eV, 0.658/RTIME)
   DFIELD  = 0.0000000 0.0000000 0.0000000 field for delta impulse in time
 
 Orbital magnetization related:
   ORBITALMAG=     F  switch on orbital magnetization
   LCHIMAG   =     F  perturbation theory with respect to B field
   DQ        =  0.001000  dq finite difference perturbation B field
   LLRAUG    =     F  two centre corrections for induced B field



--------------------------------------------------------------------------------------------------------


 conjugate gradient relaxation of ions
 charge density and potential will be updated during run
 spin polarized calculation
 Variant of blocked Davidson
 Davidson routine will perform the subspace rotation
 perform sub-space diagonalisation
    after iterative eigenvector-optimisation
 Kerker-like  mixing scheme
 using additional bands          217
 real space projection scheme for non local part
 calculate Harris-corrections to forces 
   (improved forces if not selfconsistent)
 use gradient corrections 
 use of overlap-Matrix (Vanderbilt PP)
 partial occupancies read from INCAR or WAVECAR (fixed during run)


--------------------------------------------------------------------------------------------------------


  energy-cutoff  :      520.00
  volume of cell :     1218.95
      direct lattice vectors                 reciprocal lattice vectors
    10.682237625  0.000000000  0.000000000     0.093613345  0.000000012  0.000000012
    -0.000001422 10.682234764  0.000000000     0.000000000  0.093613370  0.000000075
    -0.000001422 -0.000008535 10.682234764     0.000000000  0.000000000  0.093613370

  length of vectors
    10.682237625 10.682234764 10.682234764     0.093613345  0.093613370  0.093613370


 
 old parameters found on file WAVECAR:
  energy-cutoff  :      520.00
  volume of cell :     1218.95
      direct lattice vectors                 reciprocal lattice vectors
    10.682237625  0.000000000  0.000000000     0.093613345  0.000000012  0.000000012
    -0.000001422 10.682234764  0.000000000     0.000000000  0.093613370  0.000000075
    -0.000001422 -0.000008535 10.682234764     0.000000000  0.000000000  0.093613370

  length of vectors

 
 k-points in units of 2pi/SCALE and weight: Num irrep kpoints: 1                    
   0.00000000  0.00000000  0.00000000       1.000
 
 k-points in reciprocal lattice and weights: Num irrep kpoints: 1                    
   0.00000000  0.00000000  0.00000000       1.000
 
 position of ions in fractional coordinates (direct lattice) 
   0.54947146  0.38280531  0.54947140
   0.95821125  0.79154547  0.12508557
   0.37544357  0.54157535  0.87485774
   0.29166735  0.12500173  0.79126291
   0.29284764  0.62392821  0.62469836
   0.37544355  0.70819109  0.70824054
   0.46241472  0.45823109  0.62489848
   0.54229396  0.54305658  0.70972247
   0.45885843  0.62562775  0.79229358
   0.54189549  0.70875475  0.87542028
   0.62486538  0.79138902  0.12534546
   0.70807612  0.87485929  0.20848263
   0.62486466  0.95867953  0.95805452
   0.70807679  0.04181608  0.04152435
   0.79164691  0.79186883  0.95853457
   0.87488315  0.87507360  0.04173915
   0.79135199  0.95835255  0.12501831
   0.87469515  0.04162890  0.20829530
   0.62488313  0.79181852  0.45844992
   0.70819480  0.87539111  0.54167025
   0.62464477  0.95825969  0.29157567
   0.70841954  0.04131839  0.37520021
   0.79142653  0.79151252  0.29184151
   0.87491927  0.87484335  0.37509156
   0.79159916  0.95832402  0.45818131
   0.87440696  0.04223460  0.54145629
   0.29284736  0.45803252  0.79059523
   0.62516035  0.79221347  0.79182190
   0.54186779  0.70846511  0.54186779
   0.54093789  0.53999574  0.37664794
   0.37504964  0.20838250  0.87456640
   0.29307025  0.29069724  0.62306622
   0.37664744  0.37427149  0.70666141
   0.45736627  0.12640476  0.62306369
   0.54093710  0.20998109  0.70666236
   0.45852611  0.29186085  0.79111182
   0.54186833  0.37520225  0.87513176
   0.29157647  0.45797772  0.12492543
   0.37520254  0.54175194  0.20798665
   0.29184167  0.62476075  0.95817863
   0.37509164  0.70825343  0.04150958
   0.45845015  0.45821700  0.95848470
   0.54167046  0.54152938  0.04205713
   0.45818104  0.62493255  0.12498973
   0.54145593  0.70774119  0.20890070
   0.29306965  0.45639551  0.45736394
   0.37664796  0.53999573  0.54093787
   0.29166767  0.62459480  0.29166767
   0.37504917  0.70789944  0.37504916
   0.45736395  0.45639551  0.29306964
   0.45852644  0.62444340  0.45852643
   0.54494963  0.20251986  0.36918517
   0.70830568  0.87548035  0.87497989
   0.70786202  0.04246517  0.70786201
   0.87542027  0.37522944  0.87542027
   0.62448891  0.45782065  0.12580727
   0.70786272  0.54119707  0.20913155
   0.62516056  0.62515562  0.95887913
   0.70830565  0.70831413  0.04214574
   0.79182157  0.45849431  0.95887925
   0.87498013  0.54164013  0.04214586
   0.79144140  0.62477569  0.12558495
   0.87481780  0.70815180  0.20862029
   0.62489852  0.45823111  0.46241471
   0.70972247  0.54305659  0.54229396
   0.62469836  0.62392821  0.29284763
   0.70824053  0.70819109  0.37544354
   0.79059523  0.45803252  0.29284735
   0.87485774  0.54157535  0.37544357
   0.79229358  0.62562775  0.45885844
   0.87542027  0.70875474  0.54189550
   0.62567544  0.45900940  0.79261155
   0.70877976  0.54211405  0.87573176
   0.62567549  0.62594551  0.62567550
   0.70877983  0.70906618  0.70877984
   0.79261154  0.45900940  0.62567545
   0.87573175  0.54211405  0.70877977
   0.79229359  0.29219269  0.79229360
   0.62448830  0.95914139  0.62448831
   0.87485707  0.20877713  0.70824099
   0.70972236  0.37562826  0.70972237
   0.79182189  0.79221347  0.62516036
   0.87497989  0.87548034  0.70830568
   0.79144151  0.95891941  0.79144151
   0.87481742  0.04195471  0.87481742
   0.62464520  0.12491010  0.12492501
   0.70841867  0.20853500  0.20798539
   0.62488268  0.29178457  0.95848481
   0.70819583  0.37500511  0.04205649
   0.79142623  0.12517630  0.95817825
   0.87492004  0.20842567  0.04150858
   0.79159966  0.29151559  0.12498961
   0.87440833  0.37479063  0.20890032
   0.62306369  0.12640478  0.45736627
   0.70666239  0.20998109  0.54093709
   0.62306622  0.29069726  0.29307026
   0.70666143  0.37427150  0.37664742
   0.79126290  0.12500174  0.29166735
   0.87456640  0.20838250  0.37504963
   0.79111183  0.29186085  0.45852611
   0.87513176  0.37520225  0.54186834
   0.62469842  0.12618210  0.79059508
   0.70824099  0.20877712  0.87485706
   0.62489750  0.29574958  0.62489748
   0.79059508  0.12618209  0.62469842
   0.45867507  0.12515337  0.29181815
   0.36918830  0.37828261  0.36918828
   0.29181682  0.29200758  0.29181681
   0.12489981  0.12489442  0.95807559
   0.20818269  0.20816630  0.04134376
   0.12435428  0.29153629  0.12435427
   0.20732802  0.37431747  0.20732802
   0.95802521  0.12514671  0.45819290
   0.04167739  0.20835279  0.54141744
   0.95802503  0.29152759  0.29181268
   0.04167798  0.37475137  0.37501970
   0.12497441  0.12499556  0.29166135
   0.20855583  0.20815911  0.37482638
   0.12542140  0.29138312  0.45804990
   0.20923894  0.37438871  0.54105290
   0.95817825  0.12517631  0.79142624
   0.04150858  0.20842567  0.87492005
   0.95848480  0.29178457  0.62488269
   0.04205650  0.37500511  0.70819583
   0.12492500  0.12491008  0.62464520
   0.20798538  0.20853499  0.70841867
   0.12498960  0.29151559  0.79159967
   0.20890034  0.37479063  0.87440832
   0.95805482  0.45819937  0.12534524
   0.04152492  0.54141107  0.20848229
   0.95853477  0.62498129  0.95853477
   0.04139235  0.37481100  0.04139234
   0.04173924  0.70821725  0.04173924
   0.95830562  0.29170565  0.95830563
   0.95807558  0.12489442  0.12489981
   0.04153236  0.87486641  0.20829102
   0.95821109  0.95841998  0.95821109
   0.04153224  0.04162525  0.04153223
   0.12508557  0.79154547  0.95821125
   0.20829102  0.87486641  0.04153236
   0.12488111  0.95821518  0.12488111
   0.20821438  0.04154868  0.20821438
   0.95830557  0.79164018  0.45837076
   0.04139218  0.87472634  0.54147682
   0.95807612  0.95823365  0.29155987
   0.04134371  0.04151702  0.37483197
   0.12489988  0.79141010  0.29155987
   0.20818324  0.87467782  0.37483231
   0.12435401  0.95768829  0.45820149
   0.20732851  0.04066228  0.54098331
   0.95853457  0.79186883  0.79164692
   0.04173916  0.87507360  0.87488315
   0.95805451  0.95867952  0.62486467
   0.04152435  0.04181608  0.70807679
   0.12534545  0.79138901  0.62486538
   0.20848263  0.87485928  0.70807612
   0.12501831  0.95835254  0.79135200
   0.20829531  0.04162890  0.87469514
   0.04134377  0.20816630  0.20818268
   0.12534523  0.45819937  0.95805482
   0.20848230  0.54141107  0.04152492
   0.12501813  0.62468622  0.12501812
   0.37482632  0.04188995  0.37482633
   0.45819302  0.79135884  0.29181196
   0.54141662  0.87501211  0.37501985
   0.45804888  0.95875562  0.45804889
   0.54105305  0.04257455  0.54105304
   0.29184151  0.79151252  0.79142654
   0.37509157  0.87484335  0.87491927
   0.29157567  0.95825967  0.62464477
   0.37520021  0.04131837  0.70841953
   0.45844992  0.79181852  0.62488314
   0.54167026  0.87539112  0.70819480
   0.45818131  0.95832401  0.79159916
   0.54145629  0.04223460  0.87440695
   0.29166135  0.12499557  0.12497441
   0.37482638  0.20815912  0.20855583
   0.29181269  0.29152759  0.95802503
   0.37501970  0.37475137  0.04167797
   0.45819290  0.12514671  0.95802520
   0.54141744  0.20835279  0.04167739
   0.45804989  0.29138313  0.12542140
   0.54105292  0.37438872  0.20923892
   0.29181812  0.12515333  0.45867509
   0.36918512  0.20251978  0.54494965
   0.29166086  0.95830896  0.29166086
   0.37501986  0.87501211  0.54141662
   0.29181196  0.79135884  0.45819302
   0.54098331  0.04066231  0.20732854
   0.20829581  0.70802792  0.20829580
   0.95848470  0.45821700  0.45845016
   0.04205713  0.54152938  0.54167047
   0.95817863  0.62476076  0.29184167
   0.04150959  0.70825343  0.37509164
   0.12492543  0.45797772  0.29157647
   0.20798665  0.54175194  0.37520254
   0.12498972  0.62493255  0.45818105
   0.20890071  0.70774119  0.54145593
   0.95887924  0.45849431  0.79182158
   0.04214586  0.54164013  0.87498013
   0.79210032  0.62543469  0.79210034
   0.95887912  0.62515561  0.62516058
   0.12580727  0.45782065  0.62448892
   0.20913156  0.54119707  0.70786271
   0.12558495  0.62477569  0.79144140
   0.20862029  0.70815179  0.87481780
   0.29155987  0.79141010  0.12489988
   0.37483232  0.87467782  0.20818324
   0.29155987  0.95823366  0.95807612
   0.37483198  0.04151702  0.04134371
   0.45837076  0.79164018  0.95830558
   0.54147682  0.87472635  0.04139219
   0.45820149  0.95768831  0.12435402
   0.04214574  0.70831412  0.70830565
   0.87526230  0.70859636  0.87526231
 
 position of ions in cartesian coordinates  (Angst):
   5.86958339  4.08921153  5.86958249
  10.23583900  8.45547350  1.33619343
   4.01057543  5.78522754  9.34543578
   3.11565863  1.33529110  8.45245619
   3.12826627  6.66494223  6.67317454
   4.01057516  7.56505740  7.56559167
   4.93962239  4.89492671  6.67531223
   5.79291112  5.80105178  7.58142204
   4.90163278  6.68309572  8.46346608
   5.78865417  7.57107712  9.35144494
   6.67495915  8.45380227  1.33896961
   7.56383580  9.34545056  2.22706038
   6.67495004 10.24083165 10.23416334
   7.56384437  0.44668887  0.44357285
   8.45655795  8.45892057 10.23929134
   9.34570839  9.34774125  0.44586745
   8.45340849 10.23734582  1.33547494
   9.34370104  0.44468791  2.22505935
   6.67514832  8.45838741  4.89726971
   7.56510316  9.35112877  5.78624881
   6.67260211 10.23635245  3.11467978
   7.56750524  0.44136950  4.00797671
   8.45420475  8.45512010  3.11751953
   9.34609380  9.34527885  4.00681615
   8.45604828 10.23703823  4.89440034
   9.34062208  0.45115529  5.78396322
   3.12826331  4.89280414  8.44532381
   6.67810915  8.46260354  8.45842747
   5.78835877  7.56798600  5.78835897
   5.77842579  5.76835804  4.02344175
   4.00636780  2.22598330  9.34232355
   3.13064479  3.10529089  6.65573969
   4.02343593  3.99804987  7.54872303
   4.88569410  1.35028001  6.65571262
   5.77841731  2.24306124  7.54873328
   4.89808336  3.11771932  8.45084221
   5.78836450  4.00799100  9.34836295
   3.11468828  4.89222443  1.33448279
   4.00800166  5.78711965  2.22176222
   3.11751980  6.67383285 10.23548905
   4.00681700  7.56572904  0.44341513
   4.89727145  4.89477338 10.23875859
   5.78625179  5.78474361  0.44926414
   4.89439769  6.67567511  1.33516961
   5.78395958  7.56025575  2.23152634
   3.13063839  4.87532008  4.88566893
   4.02344150  5.76835654  5.77842531
   3.11566208  6.67206574  3.11566256
   4.00636283  7.56194484  4.00636319
   4.88566931  4.87532144  3.13063872
   4.89808680  6.67044706  4.89808700
   5.82128067  2.16336154  3.94372266
   7.56628704  9.35207911  9.34674059
   7.56154926  0.45361687  7.56154821
   9.35144555  4.00828153  9.35144486
   6.67093810  4.89054658  1.34390279
   7.56155667  5.78119234  2.23399229
   6.67811141  6.67805089 10.24297198
   7.56628818  7.56637744  0.45021071
   8.45842412  4.89773567 10.24297323
   9.34674484  5.78592663  0.45021192
   8.45436404  6.67399956  1.34152794
   9.34501029  7.56464195  2.22853089
   6.67531313  4.89492832  4.93962251
   7.58142253  5.80105338  5.79291141
   6.67317504  6.66494512  3.12826711
   7.56559213  7.56506025  4.01057603
   8.44532507  4.89280844  3.12826419
   9.34543700  5.78523185  4.01057631
   8.46346672  6.68309862  4.90163359
   9.35144561  7.57107994  5.78865495
   6.68361190  4.90323946  8.46686264
   7.57135180  5.79098206  9.35477226
   6.68361244  6.68649154  6.68361258
   7.57135258  7.57440533  7.57135264
   8.46686332  4.90324088  6.68361203
   9.35477290  5.79098349  7.57135193
   8.46346685  3.12126413  8.46346623
   6.67093017 10.24576818  6.67093069
   9.34542976  2.23020023  7.56559658
   7.58142134  4.01254320  7.58142095
   8.45842753  8.46260493  6.67810969
   9.34674082  9.35208046  7.56628753
   8.45436379 10.24339553  8.45436405
   9.34500622  0.44816261  9.34500506
   6.67260811  1.33431790  1.33447831
   7.56749601  2.22761803  2.22174873
   6.67514354  3.11690310 10.23875971
   7.56511556  4.00589230  0.44925733
   8.45420149  1.33715450 10.23548505
   9.34610345  2.22645161  0.44340437
   8.45605508  3.11403695  1.33516832
   9.34063673  4.00359969  2.23152230
   6.65571355  1.35028159  4.88569389
   7.54873449  2.24306269  5.77841702
   6.65574057  3.10529386  3.13064534
   7.54872426  3.99805286  4.02343621
   8.45245777  1.33529542  3.11565910
   9.34232530  2.22598755  4.00636817
   8.45084351  3.11772216  4.89808356
   9.34836416  4.00799390  5.78836479
   6.67317565  1.34790004  8.44532225
   7.56559699  2.23019878  9.34542852
   6.67530226  3.15926115  6.67530162
   8.44532349  1.34790142  6.67317520
   4.89967548  1.33691515  3.11727002
   3.94375608  4.04090051  3.94375586
   3.11725577  3.11929106  3.11725571
   1.33420789  1.33414333 10.23438833
   2.22385662  2.22368093  0.44164380
   1.32838133  3.11425805  1.32838153
   2.21472636  3.99854529  2.21472655
  10.23385207  1.33684257  4.89452415
   0.44520674  2.22566880  5.78354818
  10.23385021  3.11416367  3.11721157
   0.44521297  4.00317890  4.00604845
   1.33500575  1.33522945  3.11559500
   2.22784206  2.22360132  4.00398341
   1.33978010  3.11261900  4.89299653
   2.23513877  3.99930353  5.77965414
  10.23548641  1.33715594  8.45420084
   0.44340294  2.22644451  9.34610135
  10.23876111  3.11690599  6.67514358
   0.44925596  4.00588662  7.56511412
   1.33447747  1.33431349  6.67260671
   2.22174795  2.22761371  7.56749459
   1.33516705  3.11403126  8.45605347
   2.23152125  4.00359401  9.34063496
  10.23416841  4.89459217  1.33896724
   0.44357799  5.78347840  2.22705681
  10.23929391  6.67618867 10.23929347
   0.44216234  4.00381873  0.44216274
   0.44586743  7.56534261  0.44586833
  10.23684657  3.11606007 10.23684567
  10.23439071  1.33415044  1.33420904
   0.44365703  9.34552656  2.22501354
  10.23583584 10.23805901 10.23583579
   0.44365717  0.44465030  0.44365707
   1.33619133  8.45546636 10.23583756
   2.22501288  9.34552801  0.44365843
   1.33400811 10.23587845  1.33400931
   2.22419516  0.44383096  2.22419490
  10.23684605  8.45648231  4.89642409
   0.44215912  9.34402745  5.78418249
  10.23439497 10.23607436  3.11451094
   0.44164275  0.44349132  4.00404308
   1.33420869  8.45402600  3.11451094
   2.22386110  9.34351058  4.00404677
   1.32837707 10.23024721  4.89461590
   2.21473160  0.43435937  5.77891072
  10.23929177  8.45892197  8.45655826
   0.44586512  9.34773411  9.34570717
  10.23416373 10.24083436  6.67495106
   0.44357189  0.44668310  7.56384250
   1.33896790  8.45379791  6.67495870
   2.22705874  9.34544622  7.56383535
   1.33547280 10.23734008  8.45340784
   2.22505875  0.44468222  9.34369888
   0.44164336  2.22367953  2.22385628
   1.33896557  4.89458502 10.23416651
   2.22705663  5.78347981  0.44357890
   1.33547226  6.67304382  1.33547295
   4.00398324  0.44747504  4.00398284
   4.89452516  8.45347843  3.11720386
   5.78353923  9.34708158  4.00605011
   4.89298499 10.24164871  4.89298577
   5.77965638  0.45478674  5.77965557
   3.11751808  8.45511578  8.45420410
   4.00681482  9.34527453  9.34609304
   3.11467831 10.23634946  6.67260213
   4.00797676  0.44136651  7.56750375
   4.89726901  8.45838598  6.67514836
   5.78624814  9.35112738  7.56510315
   4.89439915 10.23703532  8.45604806
   5.78396344  0.45115246  9.34062036
   3.11559549  1.33523092  1.33500602
   4.00398384  2.22360280  2.22784229
   3.11721070  3.11415798 10.23384824
   4.00604897  4.00318174  0.44521389
   4.89452389  1.33683835 10.23385015
   5.78354937  2.22567309  0.44520767
   4.89299719  3.11262189  1.33978082
   5.77965499  3.99930644  2.23513932
   3.11726966  1.33691336  4.89967500
   3.94372207  2.16335921  5.82128009
   3.11558883 10.23687884  3.11558982
   4.00604922  9.34708012  5.78353944
   3.11720292  8.45347699  4.89452542
   5.77891192  0.43436256  2.21473209
   2.22506405  7.56331868  2.22506468
  10.23876003  4.89477767  4.89727221
   0.44926274  5.78473936  5.78625110
  10.23549046  6.67383857  3.11752128
   0.44341374  7.56572622  4.00681695
   1.33448208  4.89222303  3.11468829
   2.22176155  5.78711822  4.00800157
   1.33516839  6.67567227  4.89439750
   2.23152530  7.56025291  5.78395932
  10.24297415  4.89773713  8.45842402
   0.45021007  5.78591952  9.34674316
   8.46140184  6.68103347  8.46140174
  10.24297286  6.67805368  6.67811203
   1.34390165  4.89054232  6.67093720
   2.23399122  5.78118808  7.56155570
   1.34152629  6.67399385  8.45436288
   2.22852923  7.56463622  9.34500910
   3.11451048  8.45402745  1.33420987
   4.00404636  9.34351208  2.22386225
   3.11450910 10.23606870 10.23439405
   4.00404412  0.44349424  0.44164321
   4.89642287  8.45647808 10.23684516
   5.78418281  9.34403184  0.44216105
   4.89461567 10.23025024  1.32837888
   0.45020883  7.56637172  7.56628724
   9.34975765  7.56938520  9.34975744
 


--------------------------------------------------------------------------------------------------------


 k-point  1 :   0.0000 0.0000 0.0000  plane waves:   32795

 maximum and minimum number of plane-waves per node :      1372     1363

 maximum number of plane-waves:     32795
 maximum index in each direction: 
   IXMAX=   19   IYMAX=   19   IZMAX=   19
   IXMIN=  -19   IYMIN=  -19   IZMIN=  -19


 real space projection operators:
  total allocation   :       9744.50 KBytes
  max/ min on nodes  :        517.69        297.50


 parallel 3D FFT for wavefunctions:
    minimum data exchange during FFTs selected (reduces bandwidth)
 parallel 3D FFT for charge:
    minimum data exchange during FFTs selected (reduces bandwidth)

 
 Radii for the augmentation spheres in the non-local exchange
 for species   1 augmentation radius   0.801 (default was   0.709)
       energy cutoff for augmentation   2080.0
 for species   2 augmentation radius   0.795 (default was   0.699)
       energy cutoff for augmentation   2080.0

 real space projection operators:
  total allocation   :       5456.46 KBytes
  max/ min on nodes  :        304.17        152.44

 Maximum index for augmentation-charges in exchange           60
  SETUP_FOCK is finished

 total amount of memory used by VASP MPI-rank0    59031. kBytes
=======================================================================

   base      :      30000. kBytes
   nonlr-proj:       7547. kBytes
   fftplans  :       2099. kBytes
   grid      :       4371. kBytes
   one-center:         55. kBytes
   HF        :          9. kBytes
   wavefun   :      14950. kBytes
 
     INWAV:  cpu time    1.6755: real time    2.9079
 charge density for first step will be calculated from the start-wavefunctions


--------------------------------------------------------------------------------------------------------


 Maximum index for non-local projection operator           96
 Maximum index for augmentation-charges          189 (set IRDMAX)


--------------------------------------------------------------------------------------------------------


 initial charge from wavefunction
 First call to EWALD:  gamma=   0.166
 Maximum number of real-space cells 3x 3x 3
 Maximum number of reciprocal cells 3x 3x 3

    FEWALD:  cpu time    0.0059: real time    0.0060


--------------------------------------- Iteration      1(   1)  ---------------------------------------


    POTLOK:  cpu time    0.1246: real time    0.1378
    SETDIJ:  cpu time    1.5552: real time    1.5659
     EDDAV:  cpu time  591.5451: real time  593.1208
       DOS:  cpu time    0.0011: real time    0.0011
    CHARGE:  cpu time    0.0522: real time    0.0523
    MIXING:  cpu time    0.0006: real time    0.0006
    --------------------------------------------
      LOOP:  cpu time  593.2787: real time  594.8786

 eigenvalue-minimisations  :  2728
 total energy-change (2. order) :-0.2403824E+04  (-0.2816628E+01)
 number of electron     861.9999054 magnetization       2.0000002
 augmentation part       20.3904918 magnetization       0.1058433

 Free energy of the ion-electron system (eV)
  ---------------------------------------------------
  alpha Z        PSCENC =      3094.29412155
  Ewald energy   TEWEN  =    -37397.73669795
  -Hartree energ DENC   =     -2949.40632401
  -exchange      EXHF   =      1984.58678739
  -V(xc)+E(xc)   XCENC  =      2446.42381933
  PAW double counting   =     14894.44807249   -15097.09743533
  entropy T*S    EENTRO =         0.00000000
  eigenvalues    EBANDS =      -600.20098243
  atomic energy  EATOM  =     31220.86432716
  Solvation  Ediel_sol  =         0.00000000
  ---------------------------------------------------
  free energy    TOTEN  =     -2403.82431179 eV

  energy without entropy =    -2403.82431179  energy(sigma->0) =    -2403.82431179
  exchange ACFDT corr.  =         0.00000000  see jH, gK, PRB 81, 115126


--------------------------------------------------------------------------------------------------------




--------------------------------------- Iteration      1(   2)  ---------------------------------------


    POTLOK:  cpu time    0.1204: real time    0.1276
    SETDIJ:  cpu time    1.5500: real time    1.5553
     EDDAV:  cpu time  623.6718: real time  625.3372
       DOS:  cpu time    0.0006: real time    0.0006
    CHARGE:  cpu time    0.0522: real time    0.0523
    MIXING:  cpu time    0.0005: real time    0.0005
    --------------------------------------------
      LOOP:  cpu time  625.3955: real time  627.0735

 eigenvalue-minimisations  :  2952
 total energy-change (2. order) :-0.5883819E-01  (-0.5124214E-01)
 number of electron     861.9999059 magnetization       2.0000002
 augmentation part       20.3652861 magnetization       0.1061549

 Free energy of the ion-electron system (eV)
  ---------------------------------------------------
  alpha Z        PSCENC =      3094.29412155
  Ewald energy   TEWEN  =    -37397.73669795
  -Hartree energ DENC   =     -2934.57012143
  -exchange      EXHF   =      1986.96222666
  -V(xc)+E(xc)   XCENC  =      2445.42956494
  PAW double counting   =     14866.18540221   -15067.24832269
  entropy T*S    EENTRO =         0.00000000
  eigenvalues    EBANDS =      -618.06365043
  atomic energy  EATOM  =     31220.86432716
  Solvation  Ediel_sol  =         0.00000000
  ---------------------------------------------------
  free energy    TOTEN  =     -2403.88314997 eV

  energy without entropy =    -2403.88314997  energy(sigma->0) =    -2403.88314997
  exchange ACFDT corr.  =         0.00000000  see jH, gK, PRB 81, 115126


--------------------------------------------------------------------------------------------------------




--------------------------------------- Iteration      1(   3)  ---------------------------------------


    POTLOK:  cpu time    0.1200: real time    0.1285
    SETDIJ:  cpu time    1.5428: real time    1.5484
     EDDAV:  cpu time  648.2167: real time  649.9352
       DOS:  cpu time    0.0007: real time    0.0006
    CHARGE:  cpu time    0.0529: real time    0.0530
    MIXING:  cpu time    0.0005: real time    0.0005
    --------------------------------------------
      LOOP:  cpu time  649.9336: real time  651.6663

 eigenvalue-minimisations  :  3112
 total energy-change (2. order) : 0.6392228E-01  (-0.3806524E-02)
 number of electron     861.9999061 magnetization       2.0000002
 augmentation part       20.3817197 magnetization       0.1059894

 Free energy of the ion-electron system (eV)
  ---------------------------------------------------
  alpha Z        PSCENC =      3094.29412155
  Ewald energy   TEWEN  =    -37397.73669795
  -Hartree energ DENC   =     -2925.13789196
  -exchange      EXHF   =      1987.16349237
  -V(xc)+E(xc)   XCENC  =      2444.79679074
  PAW double counting   =     14848.26392653   -15048.35799988
  entropy T*S    EENTRO =         0.00000000
  eigenvalues    EBANDS =      -627.96929626
  atomic energy  EATOM  =     31220.86432716
  Solvation  Ediel_sol  =         0.00000000
  ---------------------------------------------------
  free energy    TOTEN  =     -2403.81922770 eV

  energy without entropy =    -2403.81922770  energy(sigma->0) =    -2403.81922770
  exchange ACFDT corr.  =         0.00000000  see jH, gK, PRB 81, 115126


--------------------------------------------------------------------------------------------------------




--------------------------------------- Iteration      1(   4)  ---------------------------------------


    POTLOK:  cpu time    0.1220: real time    0.1298
    SETDIJ:  cpu time    1.5455: real time    1.5499
     EDDAV:  cpu time  633.9530: real time  635.6318
       DOS:  cpu time    0.0006: real time    0.0006
    CHARGE:  cpu time    0.0521: real time    0.0522
    MIXING:  cpu time    0.0005: real time    0.0005
    --------------------------------------------
      LOOP:  cpu time  635.6738: real time  637.3648

 eigenvalue-minimisations  :  3016
 total energy-change (2. order) : 0.1771165E-01  (-0.1404555E-02)
 number of electron     861.9999062 magnetization       2.0000002
 augmentation part       20.3911666 magnetization       0.1059449

 Free energy of the ion-electron system (eV)
  ---------------------------------------------------
  alpha Z        PSCENC =      3094.29412155
  Ewald energy   TEWEN  =    -37397.73669795
  -Hartree energ DENC   =     -2920.59709959
  -exchange      EXHF   =      1987.44307598
  -V(xc)+E(xc)   XCENC  =      2444.49960945
  PAW double counting   =     14841.30497897   -15040.88612385
  entropy T*S    EENTRO =         0.00000000
  eigenvalues    EBANDS =      -632.98770778
  atomic energy  EATOM  =     31220.86432716
  Solvation  Ediel_sol  =         0.00000000
  ---------------------------------------------------
  free energy    TOTEN  =     -2403.80151605 eV

  energy without entropy =    -2403.80151605  energy(sigma->0) =    -2403.80151605
  exchange ACFDT corr.  =         0.00000000  see jH, gK, PRB 81, 115126


--------------------------------------------------------------------------------------------------------




--------------------------------------- Iteration      1(   5)  ---------------------------------------


    POTLOK:  cpu time    0.1223: real time    0.1297
    SETDIJ:  cpu time    1.5376: real time    1.5413
     EDDAV:  cpu time  623.1629: real time  624.8172
       DOS:  cpu time    0.0007: real time    0.0006
    CHARGE:  cpu time    0.0521: real time    0.0522
    MIXING:  cpu time    0.0006: real time    0.0006
    --------------------------------------------
      LOOP:  cpu time  624.8761: real time  626.5417

 eigenvalue-minimisations  :  2944
 total energy-change (2. order) : 0.4812116E-02  (-0.3352635E-03)
 number of electron     861.9999063 magnetization       2.0000002
 augmentation part       20.3961883 magnetization       0.1059773

 Free energy of the ion-electron system (eV)
  ---------------------------------------------------
  alpha Z        PSCENC =      3094.29412155
  Ewald energy   TEWEN  =    -37397.73669795
  -Hartree energ DENC   =     -2918.58392729
  -exchange      EXHF   =      1987.60858106
  -V(xc)+E(xc)   XCENC  =      2444.37280131
  PAW double counting   =     14839.35648656   -15038.67071756
  entropy T*S    EENTRO =         0.00000000
  eigenvalues    EBANDS =      -635.30167879
  atomic energy  EATOM  =     31220.86432716
  Solvation  Ediel_sol  =         0.00000000
  ---------------------------------------------------
  free energy    TOTEN  =     -2403.79670393 eV

  energy without entropy =    -2403.79670393  energy(sigma->0) =    -2403.79670393
  exchange ACFDT corr.  =         0.00000000  see jH, gK, PRB 81, 115126


--------------------------------------------------------------------------------------------------------




--------------------------------------- Iteration      1(   6)  ---------------------------------------


    POTLOK:  cpu time    0.1304: real time    0.1385
    SETDIJ:  cpu time    1.5491: real time    1.5530
     EDDAV:  cpu time  627.1487: real time  628.8215
       DOS:  cpu time    0.0007: real time    0.0006
    CHARGE:  cpu time    0.0520: real time    0.0521
    MIXING:  cpu time    0.0005: real time    0.0005
    --------------------------------------------
      LOOP:  cpu time  628.8814: real time  630.5662

 eigenvalue-minimisations  :  2968
 total energy-change (2. order) : 0.1360451E-02  (-0.8259627E-04)
 number of electron     861.9999063 magnetization       2.0000002
 augmentation part       20.3987494 magnetization       0.1059959

 Free energy of the ion-electron system (eV)
  ---------------------------------------------------
  alpha Z        PSCENC =      3094.29412155
  Ewald energy   TEWEN  =    -37397.73669795
  -Hartree energ DENC   =     -2917.73215640
  -exchange      EXHF   =      1987.68693764
  -V(xc)+E(xc)   XCENC  =      2444.32263349
  PAW double counting   =     14839.23024302   -15038.40668324
  entropy T*S    EENTRO =         0.00000000
  eigenvalues    EBANDS =      -636.31806877
  atomic energy  EATOM  =     31220.86432716
  Solvation  Ediel_sol  =         0.00000000
  ---------------------------------------------------
  free energy    TOTEN  =     -2403.79534348 eV

  energy without entropy =    -2403.79534348  energy(sigma->0) =    -2403.79534348
  exchange ACFDT corr.  =         0.00000000  see jH, gK, PRB 81, 115126


--------------------------------------------------------------------------------------------------------




--------------------------------------- Iteration      1(   7)  ---------------------------------------


    POTLOK:  cpu time    0.1229: real time    0.1303
    SETDIJ:  cpu time    1.5401: real time    1.5439
     EDDAV:  cpu time  638.3969: real time  640.1079
       DOS:  cpu time    0.0006: real time    0.0006
    CHARGE:  cpu time    0.0520: real time    0.0522
    MIXING:  cpu time    0.0006: real time    0.0006
    --------------------------------------------
      LOOP:  cpu time  640.1132: real time  641.8355

 eigenvalue-minimisations  :  3040
 total energy-change (2. order) : 0.3935472E-03  (-0.2059425E-04)
 number of electron     861.9999063 magnetization       2.0000002
 augmentation part       20.4000132 magnetization       0.1060101

 Free energy of the ion-electron system (eV)
  ---------------------------------------------------
  alpha Z        PSCENC =      3094.29412155
  Ewald energy   TEWEN  =    -37397.73669795
  -Hartree energ DENC   =     -2917.39762109
  -exchange      EXHF   =      1987.72275841
  -V(xc)+E(xc)   XCENC  =      2444.30518771
  PAW double counting   =     14839.66616081   -15038.76983252
  entropy T*S    EENTRO =         0.00000000
  eigenvalues    EBANDS =      -636.74335401
  atomic energy  EATOM  =     31220.86432716
  Solvation  Ediel_sol  =         0.00000000
  ---------------------------------------------------
  free energy    TOTEN  =     -2403.79494994 eV

  energy without entropy =    -2403.79494994  energy(sigma->0) =    -2403.79494994
  exchange ACFDT corr.  =         0.00000000  see jH, gK, PRB 81, 115126


--------------------------------------------------------------------------------------------------------




--------------------------------------- Iteration      1(   8)  ---------------------------------------


    POTLOK:  cpu time    0.1213: real time    0.1296
    SETDIJ:  cpu time    1.5377: real time    1.5415
     EDDAV:  cpu time  589.3987: real time  590.9657
       DOS:  cpu time    0.0007: real time    0.0006
    CHARGE:  cpu time    0.0520: real time    0.0521
    MIXING:  cpu time    0.0006: real time    0.0006
    --------------------------------------------
      LOOP:  cpu time  591.1110: real time  592.6900

 eigenvalue-minimisations  :  2712
 total energy-change (2. order) : 0.1171355E-03  (-0.5040236E-05)
 number of electron     861.9999063 magnetization       2.0000002
 augmentation part       20.4006494 magnetization       0.1060141

 Free energy of the ion-electron system (eV)
  ---------------------------------------------------
  alpha Z        PSCENC =      3094.29412155
  Ewald energy   TEWEN  =    -37397.73669795
  -Hartree energ DENC   =     -2917.28069837
  -exchange      EXHF   =      1987.73797742
  -V(xc)+E(xc)   XCENC  =      2444.30072557
  PAW double counting   =     14840.16704037   -15039.23261507
  entropy T*S    EENTRO =         0.00000000
  eigenvalues    EBANDS =      -636.90901349
  atomic energy  EATOM  =     31220.86432716
  Solvation  Ediel_sol  =         0.00000000
  ---------------------------------------------------
  free energy    TOTEN  =     -2403.79483280 eV

  energy without entropy =    -2403.79483280  energy(sigma->0) =    -2403.79483280
  exchange ACFDT corr.  =         0.00000000  see jH, gK, PRB 81, 115126


--------------------------------------------------------------------------------------------------------




--------------------------------------- Iteration      1(   9)  ---------------------------------------


    POTLOK:  cpu time    0.1227: real time    0.1302
    SETDIJ:  cpu time    1.5414: real time    1.5473
     EDDAV:  cpu time  424.7761: real time  425.9027
       DOS:  cpu time    0.0007: real time    0.0006
    CHARGE:  cpu time    0.0519: real time    0.0520
    MIXING:  cpu time    0.0005: real time    0.0005
    --------------------------------------------
      LOOP:  cpu time  426.4933: real time  427.6335

 eigenvalue-minimisations  :  1592
 total energy-change (2. order) : 0.3481920E-04  (-0.1475129E-05)
 number of electron     861.9999063 magnetization       2.0000002
 augmentation part       20.4008618 magnetization       0.1060171

 Free energy of the ion-electron system (eV)
  ---------------------------------------------------
  alpha Z        PSCENC =      3094.29412155
  Ewald energy   TEWEN  =    -37397.73669795
  -Hartree energ DENC   =     -2917.24950285
  -exchange      EXHF   =      1987.74411437
  -V(xc)+E(xc)   XCENC  =      2444.30083234
  PAW double counting   =     14840.57790187   -15039.62327224
  entropy T*S    EENTRO =         0.00000000
  eigenvalues    EBANDS =      -636.96662224
  atomic energy  EATOM  =     31220.86432716
  Solvation  Ediel_sol  =         0.00000000
  ---------------------------------------------------
  free energy    TOTEN  =     -2403.79479798 eV

  energy without entropy =    -2403.79479798  energy(sigma->0) =    -2403.79479798
  exchange ACFDT corr.  =         0.00000000  see jH, gK, PRB 81, 115126


--------------------------------------------------------------------------------------------------------




--------------------------------------- Iteration      1(  10)  ---------------------------------------


    POTLOK:  cpu time    0.1244: real time    0.1324
    SETDIJ:  cpu time    1.5423: real time    1.5462
     EDDAV:  cpu time  399.0273: real time  400.1102
       DOS:  cpu time    0.0006: real time    0.0006
    --------------------------------------------
      LOOP:  cpu time  400.6946: real time  401.7894

 eigenvalue-minimisations  :  1416
 total energy-change (2. order) : 0.9451891E-05  (-0.5070839E-06)
 number of electron     861.9999063 magnetization       2.0000002
 augmentation part       20.4008618 magnetization       0.1060171

 Free energy of the ion-electron system (eV)
  ---------------------------------------------------
  alpha Z        PSCENC =      3094.29412155
  Ewald energy   TEWEN  =    -37397.73669795
  -Hartree energ DENC   =     -2917.24962823
  -exchange      EXHF   =      1987.74644742
  -V(xc)+E(xc)   XCENC  =      2444.30223931
  PAW double counting   =     14840.87202536   -15039.90664929
  entropy T*S    EENTRO =         0.00000000
  eigenvalues    EBANDS =      -636.98097386
  atomic energy  EATOM  =     31220.86432716
  Solvation  Ediel_sol  =         0.00000000
  ---------------------------------------------------
  free energy    TOTEN  =     -2403.79478853 eV

  energy without entropy =    -2403.79478853  energy(sigma->0) =    -2403.79478853
  exchange ACFDT corr.  =         0.00000000  see jH, gK, PRB 81, 115126


--------------------------------------------------------------------------------------------------------




 average (electrostatic) potential at core
  the test charge radii are     0.7089  0.6991
  (the norm of the test charge is              1.0000)
       1 -54.0968       2 -41.9287       3 -41.8690       4 -41.7418       5 -41.8579
       6 -41.8690       7 -42.2834       8 -41.7201       9 -41.8465      10 -41.8843
      11 -41.8870      12 -41.8536      13 -41.8870      14 -41.8536      15 -41.9416
      16 -41.9280      17 -41.8849      18 -41.8474      19 -41.8347      20 -41.8402
      21 -41.7307      22 -41.6369      23 -41.8863      24 -41.8643      25 -41.7911
      26 -41.8591      27 -41.8578      28 -41.8936      29 -41.8243      30 -41.7014
      31 -41.7901      32 -41.3785      33 -41.7014      34 -41.3785      35 -41.7014
      36 -41.7544      37 -41.8243      38 -41.7306      39 -41.6369      40 -41.8862
      41 -41.8643      42 -41.8347      43 -41.8402      44 -41.7911      45 -41.8590
      46 -41.3784      47 -41.7014      48 -41.7418      49 -41.7901      50 -41.3784
      51 -41.7544      52 -39.9902      53 -41.9141      54 -41.8425      55 -41.8843
      56 -41.7716      57 -41.8425      58 -41.8936      59 -41.9141      60 -41.8936
      61 -41.9141      62 -41.9105      63 -41.9102      64 -42.2834      65 -41.7201
      66 -41.8579      67 -41.8690      68 -41.8578      69 -41.8690      70 -41.8465
      71 -41.8843      72 -41.8347      73 -41.8884      74 -41.8347      75 -41.8884
      76 -41.8347      77 -41.8884      78 -41.8465      79 -41.7716      80 -41.8690
      81 -41.7201      82 -41.8936      83 -41.9141      84 -41.9105      85 -41.9102
      86 -41.7307      87 -41.6370      88 -41.8347      89 -41.8402      90 -41.8862
      91 -41.8643      92 -41.7911      93 -41.8590      94 -41.3785      95 -41.7014
      96 -41.3785      97 -41.7014      98 -41.7418      99 -41.7901     100 -41.7544
     101 -41.8243     102 -41.8579     103 -41.8690     104 -42.2834     105 -41.8579
     106 -41.2488     107 -39.9901     108 -41.2487     109 -41.8615     110 -41.8081
     111 -41.7540     112 -41.5878     113 -41.8130     114 -41.7634     115 -41.8130
     116 -41.7634     117 -41.7220     118 -41.4567     119 -41.6420     120 -41.5086
     121 -41.8863     122 -41.8643     123 -41.8347     124 -41.8402     125 -41.7307
     126 -41.6370     127 -41.7911     128 -41.8590     129 -41.8870     130 -41.8536
     131 -41.9416     132 -41.8599     133 -41.9280     134 -41.8631     135 -41.8615
     136 -41.8912     137 -41.9287     138 -41.8911     139 -41.9287     140 -41.8912
     141 -41.8694     142 -41.7690     143 -41.8631     144 -41.8599     145 -41.8615
     146 -41.8081     147 -41.8615     148 -41.8081     149 -41.7541     150 -41.5879
     151 -41.9416     152 -41.9280     153 -41.8870     154 -41.8536     155 -41.8870
     156 -41.8536     157 -41.8849     158 -41.8474     159 -41.8081     160 -41.8870
     161 -41.8536     162 -41.8849     163 -41.4567     164 -41.8130     165 -41.7635
     166 -41.6421     167 -41.5087     168 -41.8863     169 -41.8643     170 -41.7307
     171 -41.6369     172 -41.8347     173 -41.8402     174 -41.7911     175 -41.8591
     176 -41.7220     177 -41.4567     178 -41.8129     179 -41.7634     180 -41.8130
     181 -41.7635     182 -41.6420     183 -41.5086     184 -41.2488     185 -39.9902
     186 -41.7220     187 -41.7635     188 -41.8130     189 -41.5879     190 -41.8474
     191 -41.8347     192 -41.8402     193 -41.8862     194 -41.8643     195 -41.7306
     196 -41.6369     197 -41.7911     198 -41.8590     199 -41.8936     200 -41.9141
     201 -41.9205     202 -41.8936     203 -41.7716     204 -41.8425     205 -41.9105
     206 -41.9102     207 -41.8615     208 -41.8081     209 -41.8615     210 -41.8081
     211 -41.8631     212 -41.8599     213 -41.7541     214 -41.9141     215 -41.9417
 
 
 
 E-fermi :  10.9969     XC(G=0): -10.7904     alpha+bet :-17.7000


 spin component 1

 k-point     1 :       0.0000    0.0000    0.0000
  band No.  band energies     occupation 
      1     -14.5412      1.00000
      2     -13.6323      1.00000
      3     -13.4441      1.00000
      4     -13.4441      1.00000
      5     -13.3990      1.00000
      6     -13.3990      1.00000
      7     -13.3076      1.00000
      8     -12.7177      1.00000
      9     -12.3526      1.00000
     10     -12.3526      1.00000
     11     -12.3448      1.00000
     12     -12.3448      1.00000
     13     -12.3314      1.00000
     14     -12.3052      1.00000
     15     -12.3052      1.00000
     16     -12.2908      1.00000
     17     -12.2487      1.00000
     18     -12.2487      1.00000
     19     -12.0634      1.00000
     20     -11.5112      1.00000
     21     -11.2386      1.00000
     22     -11.2329      1.00000
     23     -11.2329      1.00000
     24     -11.2091      1.00000
     25     -11.2089      1.00000
     26     -11.2089      1.00000
     27     -11.0389      1.00000
     28     -10.3622      1.00000
     29     -10.1515      1.00000
     30     -10.1515      1.00000
     31     -10.1308      1.00000
     32     -10.1308      1.00000
     33     -10.0678      1.00000
     34      -9.7153      1.00000
     35      -9.1775      1.00000
     36      -9.1775      1.00000
     37      -9.1718      1.00000
     38      -9.1718      1.00000
     39      -9.1708      1.00000
     40      -9.1576      1.00000
     41      -9.1563      1.00000
     42      -9.1563      1.00000
     43      -9.1418      1.00000
     44      -9.1353      1.00000
     45      -9.1353      1.00000
     46      -9.1305      1.00000
     47      -9.1305      1.00000
     48      -9.1290      1.00000
     49      -9.1030      1.00000
     50      -9.1030      1.00000
     51      -9.0906      1.00000
     52      -9.0856      1.00000
     53      -9.0856      1.00000
     54      -9.0596      1.00000
     55      -8.9989      1.00000
     56      -8.9989      1.00000
     57      -8.8062      1.00000
     58      -8.5898      1.00000
     59      -8.3463      1.00000
     60      -8.3463      1.00000
     61      -8.3178      1.00000
     62      -8.3178      1.00000
     63      -8.3161      1.00000
     64      -8.3061      1.00000
     65      -8.2970      1.00000
     66      -8.2970      1.00000
     67      -8.2926      1.00000
     68      -8.2863      1.00000
     69      -8.2863      1.00000
     70      -8.2627      1.00000
     71      -8.2577      1.00000
     72      -8.2577      1.00000
     73      -8.2381      1.00000
     74      -8.2381      1.00000
     75      -8.2066      1.00000
     76      -8.2060      1.00000
     77      -8.2060      1.00000
     78      -8.1660      1.00000
     79      -8.0642      1.00000
     80      -8.0642      1.00000
     81      -7.3268      1.00000
     82      -6.6642      1.00000
     83      -6.4809      1.00000
     84      -6.4809      1.00000
     85      -6.4448      1.00000
     86      -6.4448      1.00000
     87      -6.4366      1.00000
     88      -6.4339      1.00000
     89      -6.4339      1.00000
     90      -6.4229      1.00000
     91      -6.3809      1.00000
     92      -6.3809      1.00000
     93      -5.9962      1.00000
     94      -5.0967      1.00000
     95      -5.0364      1.00000
     96      -5.0364      1.00000
     97      -5.0119      1.00000
     98      -5.0119      1.00000
     99      -4.9693      1.00000
    100      -4.7339      1.00000
    101      -4.5319      1.00000
    102      -4.5319      1.00000
    103      -4.5019      1.00000
    104      -4.4921      1.00000
    105      -4.4921      1.00000
    106      -4.4807      1.00000
    107      -4.4807      1.00000
    108      -4.4800      1.00000
    109      -4.4768      1.00000
    110      -4.4599      1.00000
    111      -4.4599      1.00000
    112      -4.4509      1.00000
    113      -4.4509      1.00000
    114      -4.4291      1.00000
    115      -4.3989      1.00000
    116      -4.3830      1.00000
    117      -4.3830      1.00000
    118      -4.3500      1.00000
    119      -4.3429      1.00000
    120      -4.3429      1.00000
    121      -4.3204      1.00000
    122      -4.3204      1.00000
    123      -4.2243      1.00000
    124      -4.1897      1.00000
    125      -4.1897      1.00000
    126      -4.1865      1.00000
    127      -4.1608      1.00000
    128      -4.1605      1.00000
    129      -4.1605      1.00000
    130      -4.1525      1.00000
    131      -4.1510      1.00000
    132      -4.1510      1.00000
    133      -4.1449      1.00000
    134      -4.1266      1.00000
    135      -4.1266      1.00000
    136      -4.1041      1.00000
    137      -4.1041      1.00000
    138      -4.1014      1.00000
    139      -4.0947      1.00000
    140      -4.0947      1.00000
    141      -4.0897      1.00000
    142      -4.0897      1.00000
    143      -4.0870      1.00000
    144      -3.8459      1.00000
[...]
    4ORBIT:  cpu time    0.0000: real time    0.0000
 


 total charge     
 
# of ion       s       p       d       tot
------------------------------------------
    1        1.210   2.724   0.000   3.934
    2        0.836   1.749   0.000   2.585
    3        0.836   1.749   0.000   2.584
    4        0.836   1.749   0.000   2.585
    5        0.835   1.742   0.000   2.577
    6        0.836   1.749   0.000   2.584
    7        0.830   1.712   0.000   2.542
    8        0.839   1.759   0.000   2.598
    9        0.837   1.756   0.000   2.593
   10        0.837   1.753   0.000   2.589
   11        0.836   1.748   0.000   2.584
   12        0.836   1.750   0.000   2.586
   13        0.836   1.748   0.000   2.584
   14        0.836   1.750   0.000   2.586
   15        0.836   1.748   0.000   2.584
   16        0.836   1.750   0.000   2.586
   17        0.836   1.749   0.000   2.585
   18        0.836   1.750   0.000   2.586
   19        0.836   1.750   0.000   2.586
   20        0.836   1.749   0.000   2.585
   21        0.836   1.748   0.000   2.584
   22        0.838   1.743   0.000   2.580
   23        0.836   1.750   0.000   2.586
   24        0.836   1.750   0.000   2.587
   25        0.837   1.753   0.000   2.590
   26        0.835   1.746   0.000   2.581
   27        0.835   1.742   0.000   2.577
   28        0.836   1.750   0.000   2.587
   29        0.836   1.749   0.000   2.585
   30        0.835   1.742   0.000   2.577
   31        0.836   1.750   0.000   2.586
   32        0.836   1.747   0.000   2.583
   33        0.835   1.742   0.000   2.577
   34        0.836   1.747   0.000   2.583
   35        0.835   1.742   0.000   2.577
   36        0.837   1.753   0.000   2.590
   37        0.836   1.749   0.000   2.585
   38        0.836   1.748   0.000   2.584
   39        0.838   1.743   0.000   2.580
   40        0.836   1.750   0.000   2.586
   41        0.836   1.750   0.000   2.587
   42        0.836   1.750   0.000   2.586
   43        0.836   1.749   0.000   2.585
   44        0.837   1.753   0.000   2.590
   45        0.835   1.746   0.000   2.581
   46        0.836   1.747   0.000   2.583
   47        0.835   1.742   0.000   2.577
   48        0.836   1.749   0.000   2.585
   49        0.836   1.750   0.000   2.586
   50        0.836   1.747   0.000   2.583
   51        0.837   1.753   0.000   2.590
   52        0.843   1.724   0.000   2.567
   53        0.836   1.750   0.000   2.586
   54        0.836   1.750   0.000   2.586
   55        0.837   1.753   0.000   2.589
   56        0.836   1.748   0.000   2.583
   57        0.836   1.750   0.000   2.586
   58        0.836   1.750   0.000   2.587
   59        0.836   1.750   0.000   2.586
   60        0.836   1.750   0.000   2.587
   61        0.836   1.750   0.000   2.586
   62        0.836   1.748   0.000   2.584
   63        0.836   1.750   0.000   2.586
   64        0.830   1.712   0.000   2.542
   65        0.839   1.759   0.000   2.598
   66        0.835   1.742   0.000   2.577
   67        0.836   1.749   0.000   2.584
   68        0.835   1.742   0.000   2.577
   69        0.836   1.749   0.000   2.584
   70        0.837   1.756   0.000   2.593
   71        0.837   1.753   0.000   2.589
   72        0.836   1.750   0.000   2.587
   73        0.837   1.753   0.000   2.589
   74        0.836   1.750   0.000   2.587
   75        0.837   1.753   0.000   2.589
   76        0.836   1.750   0.000   2.587
   77        0.837   1.753   0.000   2.589
   78        0.837   1.756   0.000   2.593
   79        0.836   1.748   0.000   2.583
   80        0.836   1.749   0.000   2.584
   81        0.839   1.759   0.000   2.598
   82        0.836   1.750   0.000   2.587
   83        0.836   1.750   0.000   2.586
   84        0.836   1.748   0.000   2.584
   85        0.836   1.750   0.000   2.586
   86        0.836   1.748   0.000   2.584
   87        0.838   1.743   0.000   2.580
   88        0.836   1.750   0.000   2.586
   89        0.836   1.749   0.000   2.585
   90        0.836   1.750   0.000   2.586
   91        0.836   1.750   0.000   2.587
   92        0.837   1.753   0.000   2.590
   93        0.835   1.746   0.000   2.581
   94        0.836   1.747   0.000   2.583
   95        0.835   1.742   0.000   2.577
   96        0.836   1.747   0.000   2.583
   97        0.835   1.742   0.000   2.577
   98        0.836   1.749   0.000   2.585
   99        0.836   1.750   0.000   2.586
  100        0.837   1.753   0.000   2.590
  101        0.836   1.749   0.000   2.585
  102        0.835   1.742   0.000   2.577
  103        0.836   1.749   0.000   2.584
  104        0.830   1.712   0.000   2.542
  105        0.835   1.742   0.000   2.577
  106        0.837   1.758   0.000   2.595
  107        0.843   1.724   0.000   2.567
  108        0.837   1.758   0.000   2.595
  109        0.836   1.750   0.000   2.586
  110        0.836   1.748   0.000   2.584
  111        0.837   1.755   0.000   2.592
  112        0.838   1.748   0.000   2.586
  113        0.836   1.750   0.000   2.586
  114        0.836   1.749   0.000   2.586
  115        0.836   1.750   0.000   2.586
  116        0.836   1.749   0.000   2.586
  117        0.836   1.748   0.000   2.584
  118        0.837   1.748   0.000   2.584
  119        0.836   1.750   0.000   2.586
  120        0.837   1.749   0.000   2.586
  121        0.836   1.750   0.000   2.586
  122        0.836   1.750   0.000   2.587
  123        0.836   1.750   0.000   2.586
  124        0.836   1.749   0.000   2.585
  125        0.836   1.748   0.000   2.584
  126        0.838   1.743   0.000   2.580
  127        0.837   1.753   0.000   2.590
  128        0.835   1.746   0.000   2.581
  129        0.836   1.748   0.000   2.584
  130        0.836   1.750   0.000   2.586
  131        0.836   1.748   0.000   2.584
  132        0.836   1.751   0.000   2.587
  133        0.836   1.750   0.000   2.586
  134        0.837   1.755   0.000   2.592
  135        0.836   1.750   0.000   2.586
  136        0.836   1.750   0.000   2.586
  137        0.836   1.749   0.000   2.585
  138        0.836   1.750   0.000   2.586
  139        0.836   1.749   0.000   2.585
  140        0.836   1.750   0.000   2.586
  141        0.836   1.750   0.000   2.586
  142        0.836   1.748   0.000   2.585
  143        0.837   1.755   0.000   2.592
  144        0.836   1.751   0.000   2.587
  145        0.836   1.750   0.000   2.586
  146        0.836   1.748   0.000   2.584
  147        0.836   1.750   0.000   2.586
  148        0.836   1.748   0.000   2.584
  149        0.837   1.755   0.000   2.592
  150        0.838   1.748   0.000   2.586
  151        0.836   1.748   0.000   2.584
  152        0.836   1.750   0.000   2.586
  153        0.836   1.748   0.000   2.584
  154        0.836   1.750   0.000   2.586
  155        0.836   1.748   0.000   2.584
  156        0.836   1.750   0.000   2.586
  157        0.836   1.749   0.000   2.585
  158        0.836   1.750   0.000   2.586
  159        0.836   1.748   0.000   2.584
  160        0.836   1.748   0.000   2.584
  161        0.836   1.750   0.000   2.586
  162        0.836   1.749   0.000   2.585
  163        0.837   1.748   0.000   2.584
  164        0.836   1.750   0.000   2.586
  165        0.836   1.749   0.000   2.585
  166        0.836   1.750   0.000   2.586
  167        0.837   1.749   0.000   2.586
  168        0.836   1.750   0.000   2.586
  169        0.836   1.750   0.000   2.587
  170        0.836   1.748   0.000   2.584
  171        0.838   1.743   0.000   2.580
  172        0.836   1.750   0.000   2.586
  173        0.836   1.749   0.000   2.585
  174        0.837   1.753   0.000   2.590
  175        0.835   1.746   0.000   2.581
  176        0.836   1.748   0.000   2.584
  177        0.837   1.748   0.000   2.584
  178        0.836   1.750   0.000   2.586
  179        0.836   1.749   0.000   2.586
  180        0.836   1.750   0.000   2.586
  181        0.836   1.749   0.000   2.586
  182        0.836   1.750   0.000   2.586
  183        0.837   1.749   0.000   2.586
  184        0.837   1.758   0.000   2.595
  185        0.843   1.724   0.000   2.567
  186        0.836   1.748   0.000   2.584
  187        0.836   1.749   0.000   2.585
  188        0.836   1.750   0.000   2.586
  189        0.838   1.748   0.000   2.586
  190        0.836   1.750   0.000   2.586
  191        0.836   1.750   0.000   2.586
  192        0.836   1.749   0.000   2.585
  193        0.836   1.750   0.000   2.586
  194        0.836   1.750   0.000   2.587
  195        0.836   1.748   0.000   2.584
  196        0.838   1.743   0.000   2.580
  197        0.837   1.753   0.000   2.590
  198        0.835   1.746   0.000   2.581
  199        0.836   1.750   0.000   2.587
  200        0.836   1.750   0.000   2.586
  201        0.836   1.749   0.000   2.585
  202        0.836   1.750   0.000   2.587
  203        0.836   1.748   0.000   2.583
  204        0.836   1.750   0.000   2.586
  205        0.836   1.748   0.000   2.584
  206        0.836   1.750   0.000   2.586
  207        0.836   1.750   0.000   2.586
  208        0.836   1.748   0.000   2.584
  209        0.836   1.750   0.000   2.586
  210        0.836   1.748   0.000   2.584
  211        0.837   1.755   0.000   2.592
  212        0.836   1.751   0.000   2.587
  213        0.837   1.755   0.000   2.592
  214        0.836   1.750   0.000   2.586
  215        0.836   1.750   0.000   2.586
--------------------------------------------------
tot        180.165 376.879   0.000 557.044
 


 magnetization (x)
 
# of ion       s       p       d       tot
------------------------------------------
    1       -0.002  -0.000   0.000  -0.002
    2       -0.000  -0.000   0.000  -0.000
    3        0.000   0.000   0.000   0.000
    4       -0.000  -0.001   0.000  -0.002
    5       -0.000  -0.000   0.000  -0.000
    6        0.000   0.000   0.000   0.000
    7       -0.000   0.001   0.000   0.001
    8        0.000   0.000   0.000   0.000
    9        0.000   0.000   0.000   0.000
   10        0.000   0.000   0.000   0.000
   11       -0.000  -0.000   0.000  -0.000
   12        0.000   0.001   0.000   0.001
   13       -0.000  -0.000   0.000  -0.000
   14        0.000   0.001   0.000   0.001
   15       -0.000   0.000   0.000   0.000
   16        0.000   0.000   0.000   0.000
   17       -0.000  -0.000   0.000  -0.000
   18        0.000   0.001   0.000   0.001
   19       -0.000  -0.000   0.000  -0.000
   20       -0.000   0.000   0.000   0.000
   21       -0.000  -0.001   0.000  -0.002
   22        0.004   0.018   0.000   0.022
   23       -0.000  -0.000   0.000  -0.000
   24        0.000   0.002   0.000   0.002
   25        0.001   0.003   0.000   0.004
   26        0.000   0.000   0.000   0.000
   27       -0.000  -0.000   0.000  -0.000
   28       -0.000  -0.000   0.000  -0.000
   29        0.000   0.001   0.000   0.001
   30        0.001   0.004   0.000   0.005
   31        0.000   0.001   0.000   0.001
   32       -0.002  -0.008   0.000  -0.011
   33        0.001   0.004   0.000   0.005
   34       -0.002  -0.008   0.000  -0.011
   35        0.001   0.004   0.000   0.005
   36       -0.000  -0.001   0.000  -0.001
   37        0.000   0.001   0.000   0.001
   38       -0.000  -0.001   0.000  -0.002
   39        0.004   0.018   0.000   0.022
   40       -0.000  -0.000   0.000  -0.000
   41        0.000   0.002   0.000   0.002
   42       -0.000  -0.000   0.000  -0.000
   43       -0.000   0.000   0.000   0.000
   44        0.001   0.003   0.000   0.004
   45        0.000   0.000   0.000   0.000
   46       -0.002  -0.008   0.000  -0.011
   47        0.001   0.004   0.000   0.005
   48       -0.000  -0.001   0.000  -0.002
   49        0.000   0.001   0.000   0.001
   50       -0.002  -0.008   0.000  -0.011
   51       -0.000  -0.001   0.000  -0.001
   52        0.048   0.306   0.000   0.353
   53        0.000   0.000   0.000   0.000
   54        0.000   0.000   0.000   0.000
   55        0.000   0.000   0.000   0.000
   56       -0.000  -0.001   0.000  -0.001
   57        0.000   0.000   0.000   0.000
   58       -0.000  -0.000   0.000  -0.000
   59        0.000   0.000   0.000   0.000
   60       -0.000  -0.000   0.000  -0.000
   61        0.000   0.000   0.000   0.000
   62        0.000   0.000   0.000   0.000
   63        0.000   0.000   0.000   0.000
   64       -0.000   0.001   0.000   0.001
   65        0.000   0.000   0.000   0.000
   66       -0.000  -0.000   0.000  -0.000
   67        0.000   0.000   0.000   0.000
   68       -0.000  -0.000   0.000  -0.000
   69        0.000   0.000   0.000   0.000
   70        0.000   0.000   0.000   0.000
   71        0.000   0.000   0.000   0.000
   72       -0.000  -0.000   0.000  -0.000
   73        0.000  -0.000   0.000  -0.000
   74       -0.000  -0.000   0.000  -0.000
   75        0.000  -0.000   0.000  -0.000
   76       -0.000  -0.000   0.000  -0.000
   77        0.000  -0.000   0.000  -0.000
   78        0.000   0.000   0.000   0.000
   79       -0.000  -0.001   0.000  -0.001
   80        0.000   0.000   0.000   0.000
   81        0.000   0.000   0.000   0.000
   82       -0.000  -0.000   0.000  -0.000
   83        0.000   0.000   0.000   0.000
   84        0.000   0.000   0.000   0.000
   85        0.000   0.000   0.000   0.000
   86       -0.000  -0.001   0.000  -0.002
   87        0.004   0.018   0.000   0.022
   88       -0.000  -0.000   0.000  -0.000
   89       -0.000   0.000   0.000   0.000
   90       -0.000  -0.000   0.000  -0.000
   91        0.000   0.002   0.000   0.002
   92        0.001   0.003   0.000   0.004
   93        0.000   0.000   0.000   0.000
   94       -0.002  -0.008   0.000  -0.011
   95        0.001   0.004   0.000   0.005
   96       -0.002  -0.008   0.000  -0.011
   97        0.001   0.004   0.000   0.005
   98       -0.000  -0.001   0.000  -0.002
   99        0.000   0.001   0.000   0.001
  100       -0.000  -0.001   0.000  -0.001
  101        0.000   0.001   0.000   0.001
  102       -0.000  -0.000   0.000  -0.000
  103        0.000   0.000   0.000   0.000
  104       -0.000   0.001   0.000   0.001
  105       -0.000  -0.000   0.000  -0.000
  106       -0.003  -0.013   0.000  -0.017
  107        0.048   0.306   0.000   0.353
  108       -0.003  -0.013   0.000  -0.017
  109       -0.000  -0.000   0.000  -0.000
  110        0.000   0.000   0.000   0.000
  111        0.000   0.001   0.000   0.002
  112        0.004   0.017   0.000   0.021
  113       -0.000  -0.000   0.000  -0.000
  114        0.000   0.002   0.000   0.002
  115       -0.000  -0.000   0.000  -0.000
  116        0.000   0.002   0.000   0.002
  117       -0.000  -0.001   0.000  -0.001
  118        0.001   0.008   0.000   0.009
  119       -0.000  -0.001   0.000  -0.002
  120        0.001   0.007   0.000   0.008
  121       -0.000  -0.000   0.000  -0.000
  122        0.000   0.002   0.000   0.002
  123       -0.000  -0.000   0.000  -0.000
  124       -0.000   0.000   0.000   0.000
  125       -0.000  -0.001   0.000  -0.002
  126        0.004   0.018   0.000   0.022
  127        0.001   0.003   0.000   0.004
  128        0.000   0.000   0.000   0.000
  129       -0.000  -0.000   0.000  -0.000
  130        0.000   0.001   0.000   0.001
  131       -0.000   0.000   0.000   0.000
  132        0.000   0.001   0.000   0.001
  133        0.000   0.000   0.000   0.000
  134       -0.000   0.001   0.000   0.001
  135       -0.000  -0.000   0.000  -0.000
  136        0.000   0.000   0.000   0.000
  137       -0.000  -0.000   0.000  -0.000
  138        0.000   0.000   0.000   0.000
  139       -0.000  -0.000   0.000  -0.000
  140        0.000   0.000   0.000   0.000
  141       -0.000  -0.000   0.000  -0.000
  142       -0.000   0.000   0.000   0.000
  143       -0.000   0.001   0.000   0.001
  144        0.000   0.001   0.000   0.001
  145       -0.000  -0.000   0.000  -0.000
  146        0.000   0.000   0.000   0.000
  147       -0.000  -0.000   0.000  -0.000
  148        0.000   0.000   0.000   0.000
  149        0.000   0.001   0.000   0.002
  150        0.004   0.017   0.000   0.021
  151       -0.000   0.000   0.000   0.000
  152        0.000   0.000   0.000   0.000
  153       -0.000  -0.000   0.000  -0.000
  154        0.000   0.001   0.000   0.001
  155       -0.000  -0.000   0.000  -0.000
  156        0.000   0.001   0.000   0.001
  157       -0.000  -0.000   0.000  -0.000
  158        0.000   0.001   0.000   0.001
  159        0.000   0.000   0.000   0.000
  160       -0.000  -0.000   0.000  -0.000
  161        0.000   0.001   0.000   0.001
  162       -0.000  -0.000   0.000  -0.000
  163        0.001   0.008   0.000   0.009
  164       -0.000  -0.000   0.000  -0.000
  165        0.000   0.002   0.000   0.002
  166       -0.000  -0.001   0.000  -0.002
  167        0.001   0.007   0.000   0.008
  168       -0.000  -0.000   0.000  -0.000
  169        0.000   0.002   0.000   0.002
  170       -0.000  -0.001   0.000  -0.002
  171        0.004   0.018   0.000   0.022
  172       -0.000  -0.000   0.000  -0.000
  173       -0.000   0.000   0.000   0.000
  174        0.001   0.003   0.000   0.004
  175        0.000   0.000   0.000   0.000
  176       -0.000  -0.001   0.000  -0.001
  177        0.001   0.008   0.000   0.009
  178       -0.000  -0.000   0.000  -0.000
  179        0.000   0.002   0.000   0.002
  180       -0.000  -0.000   0.000  -0.000
  181        0.000   0.002   0.000   0.002
  182       -0.000  -0.001   0.000  -0.002
  183        0.001   0.007   0.000   0.008
  184       -0.003  -0.013   0.000  -0.017
  185        0.048   0.306   0.000   0.353
  186       -0.000  -0.001   0.000  -0.001
  187        0.000   0.002   0.000   0.002
  188       -0.000  -0.000   0.000  -0.000
  189        0.004   0.017   0.000   0.021
  190        0.000   0.001   0.000   0.001
  191       -0.000  -0.000   0.000  -0.000
  192       -0.000   0.000   0.000   0.000
  193       -0.000  -0.000   0.000  -0.000
  194        0.000   0.002   0.000   0.002
  195       -0.000  -0.001   0.000  -0.002
  196        0.004   0.018   0.000   0.022
  197        0.001   0.003   0.000   0.004
  198        0.000   0.000   0.000   0.000
  199       -0.000  -0.000   0.000  -0.000
  200        0.000   0.000   0.000   0.000
  201       -0.000   0.000   0.000   0.000
  202       -0.000  -0.000   0.000  -0.000
  203       -0.000  -0.001   0.000  -0.001
  204        0.000   0.000   0.000   0.000
  205        0.000   0.000   0.000   0.000
  206        0.000   0.000   0.000   0.000
  207       -0.000  -0.000   0.000  -0.000
  208        0.000   0.000   0.000   0.000
  209       -0.000  -0.000   0.000  -0.000
  210        0.000   0.000   0.000   0.000
  211       -0.000   0.001   0.000   0.001
  212        0.000   0.001   0.000   0.001
  213        0.000   0.001   0.000   0.002
  214        0.000   0.000   0.000   0.000
  215        0.000   0.000   0.000   0.000
--------------------------------------------------
tot          0.172   1.097   0.000   1.269
 

 total amount of memory used by VASP MPI-rank0   189351. kBytes
=======================================================================

   base      :      30000. kBytes
   nonlr-proj:     137867. kBytes
   fftplans  :       2099. kBytes
   grid      :       4371. kBytes
   one-center:         55. kBytes
   HF        :          9. kBytes
   wavefun   :      14950. kBytes
 
  
  
 General timing and accounting informations for this job:
 ========================================================
  
                  Total CPU time used (sec):    29543.920
                            User time (sec):    29538.269
                          System time (sec):        5.651
                         Elapsed time (sec):    29663.721
  
                   Maximum memory used (kb):      557780.
                   Average memory used (kb):           0.
  
                          Minor page faults:      1466647
                          Major page faults:            0
                 Voluntary context switches:         7224
