       N       E                     dE             d eps       ncg     rms          rms(c)
DAV:   1     0.260092266824E+04    0.26009E+04   -0.45180E+05  2592   0.131E+03
DAV:   2    -0.168442958913E+04   -0.42854E+04   -0.40469E+04  3112   0.271E+02
DAV:   3    -0.191142141744E+04   -0.22699E+03   -0.22448E+03  3360   0.563E+01
DAV:   4    -0.191520092383E+04   -0.37795E+01   -0.37601E+01  3328   0.726E+00
DAV:   5    -0.191528572393E+04   -0.84800E-01   -0.84669E-01  3360   0.105E+00    0.867E+01
DAV:   6    -0.189908467355E+04    0.16201E+02   -0.90208E+01  2976   0.108E+01    0.466E+01
DAV:   7    -0.192935956134E+04   -0.30275E+02   -0.59287E+01  2944   0.856E+00    0.201E+01
DAV:   8    -0.193426786985E+04   -0.49083E+01   -0.93981E+00  3088   0.383E+00    0.379E+00
DAV:   9    -0.193440525665E+04   -0.13739E+00   -0.45065E-01  3160   0.112E+00    0.196E+00
DAV:  10    -0.193439210382E+04    0.13153E-01   -0.17688E-01  3104   0.554E-01    0.539E-01
DAV:  11    -0.193438810522E+04    0.39986E-02   -0.16618E-02  3160   0.180E-01    0.166E-01
DAV:  12    -0.193438897749E+04   -0.87226E-03   -0.10648E-03  3360   0.624E-02    0.807E-02
DAV:  13    -0.193438943006E+04   -0.45257E-03   -0.67476E-04  3224   0.430E-02    0.356E-02
DAV:  14    -0.193438951629E+04   -0.86233E-04   -0.14121E-04  3200   0.179E-02    0.185E-02
DAV:  15    -0.193438953623E+04   -0.19937E-04   -0.27501E-05  2488   0.836E-03    0.615E-03
DAV:  16    -0.193438953876E+04   -0.25336E-05   -0.53278E-06  1624   0.341E-03
   1 F= -.19343895E+04 E0= -.19343895E+04  d E =-.193439E+04  mag=     2.0007
