       N       E                     dE             d eps       ncg     rms          ort
SDA:   1    -0.240105240622E+04   -0.24011E+04   -0.34016E+00   648   0.850E+00 0.000E+00
DMP:   2    -0.240129255463E+04   -0.24015E+00   -0.11691E+00   648   0.158E+00 0.351E+00
DMP:   3    -0.240135447835E+04   -0.61924E-01   -0.20676E-01   648   0.449E-01 0.178E-01
DMP:   4    -0.240136647150E+04   -0.11993E-01   -0.18311E-01   648   0.425E-01 0.865E-02
DMP:   5    -0.240137952315E+04   -0.13052E-01   -0.81962E-02   648   0.130E-01 0.197E-01
DMP:   6    -0.240138446337E+04   -0.49402E-02   -0.22742E-02   648   0.405E-02 0.428E-02
DMP:   7    -0.240138601783E+04   -0.15545E-02   -0.13798E-02   648   0.264E-02 0.213E-02
DMP:   8    -0.240138706670E+04   -0.10489E-02   -0.68873E-03   648   0.102E-02 0.183E-02
DMP:   9    -0.240138757114E+04   -0.50444E-03   -0.30155E-03   648   0.437E-03 0.830E-03
DMP:  10    -0.240138780752E+04   -0.23638E-03   -0.18089E-03   648   0.279E-03 0.453E-03
DMP:  11    -0.240138795628E+04   -0.14876E-03   -0.11154E-03   648   0.159E-03 0.313E-03
DMP:  12    -0.240138804810E+04   -0.91819E-04   -0.67375E-04   648   0.927E-04 0.198E-03
DMP:  13    -0.240138810494E+04   -0.56837E-04   -0.43813E-04   648   0.593E-04 0.132E-03
DMP:  14    -0.240138814212E+04   -0.37185E-04   -0.29643E-04   648   0.397E-04 0.902E-04
DMP:  15    -0.240138816729E+04   -0.25172E-04   -0.21581E-04   648   0.297E-04 0.636E-04
DMP:  16    -0.240138818558E+04   -0.18281E-04   -0.16620E-04   648   0.234E-04 0.476E-04
DMP:  17    -0.240138819960E+04   -0.14021E-04   -0.13285E-04   648   0.190E-04 0.373E-04
DMP:  18    -0.240138821073E+04   -0.11130E-04   -0.10972E-04   648   0.160E-04 0.300E-04
DMP:  19    -0.240138821986E+04   -0.91343E-05   -0.94388E-05   648   0.141E-04 0.249E-04
   1 F= -.24013882E+04 E0= -.24013882E+04  d E =0.000000E+00  mag=     2.0000
