  215  215    1    2
  0.5669542E+01  0.1068224E-08  0.1068223E-08  0.1068223E-08  0.5000000E-15
  1.000000000000000E-004
  CAR 
 unknown system                          
    862      1    648
 
  0.0000000E+00  0.0000000E+00  0.0000000E+00  0.1000000E+01
    1      -11.834327    -11.828848   1.000000   1.000000
    2      -10.964993    -10.961848   1.000000   1.000000
    3      -10.823560    -10.820759   1.000000   1.000000
    4      -10.822446    -10.819513   1.000000   1.000000
    5      -10.791493    -10.783742   1.000000   1.000000
    6      -10.780891    -10.773485   1.000000   1.000000
    7      -10.697269    -10.684999   1.000000   1.000000
    8      -10.121914    -10.118360   1.000000   1.000000
    9       -9.813699     -9.811514   1.000000   1.000000
   10       -9.813216     -9.810974   1.000000   1.000000
   11       -9.809822     -9.806662   1.000000   1.000000
   12       -9.805017     -9.802472   1.000000   1.000000
   13       -9.799228     -9.794734   1.000000   1.000000
   14       -9.778854     -9.769832   1.000000   1.000000
   15       -9.772167     -9.765410   1.000000   1.000000
   16       -9.756306     -9.752864   1.000000   1.000000
   17       -9.735751     -9.721037   1.000000   1.000000
   18       -9.720196     -9.703405   1.000000   1.000000
   19       -9.546956     -9.523530   1.000000   1.000000
   20       -9.021645     -9.016979   1.000000   1.000000
   21       -8.792314     -8.785572   1.000000   1.000000
   22       -8.781100     -8.775126   1.000000   1.000000
   23       -8.778762     -8.771252   1.000000   1.000000
   24       -8.769525     -8.755544   1.000000   1.000000
   25       -8.763322     -8.754744   1.000000   1.000000
   26       -8.755802     -8.742172   1.000000   1.000000
   27       -8.599954     -8.576307   1.000000   1.000000
   28       -7.967521     -7.956418   1.000000   1.000000
   29       -7.790856     -7.784816   1.000000   1.000000
   30       -7.786668     -7.780669   1.000000   1.000000
   31       -7.773943     -7.763660   1.000000   1.000000
   32       -7.766166     -7.756227   1.000000   1.000000
   33       -7.707450     -7.699737   1.000000   1.000000
   34       -7.363288     -7.350629   1.000000   1.000000
   35       -6.886886     -6.882596   1.000000   1.000000
   36       -6.882886     -6.880538   1.000000   1.000000
   37       -6.881757     -6.880357   1.000000   1.000000
   38       -6.878009     -6.874286   1.000000   1.000000
   39       -6.876259     -6.872017   1.000000   1.000000
   40       -6.871124     -6.867685   1.000000   1.000000
   41       -6.868621     -6.864841   1.000000   1.000000
   42       -6.867775     -6.864077   1.000000   1.000000
   43       -6.854472     -6.852831   1.000000   1.000000
   44       -6.849478     -6.846380   1.000000   1.000000
   45       -6.848461     -6.844511   1.000000   1.000000
   46       -6.846546     -6.844406   1.000000   1.000000
   47       -6.843433     -6.840182   1.000000   1.000000
   48       -6.842588     -6.838501   1.000000   1.000000
   49       -6.829888     -6.811580   1.000000   1.000000
   50       -6.822118     -6.805819   1.000000   1.000000
   51       -6.814919     -6.803756   1.000000   1.000000
   52       -6.809681     -6.801969   1.000000   1.000000
   53       -6.802100     -6.794125   1.000000   1.000000
   54       -6.776601     -6.773390   1.000000   1.000000
   55       -6.734248     -6.710865   1.000000   1.000000
   56       -6.719957     -6.694038   1.000000   1.000000
   57       -6.538139     -6.525751   1.000000   1.000000
   58       -6.326687     -6.322889   1.000000   1.000000
   59       -6.103368     -6.101026   1.000000   1.000000
   60       -6.100413     -6.098275   1.000000   1.000000
   61       -6.081260     -6.076265   1.000000   1.000000
   62       -6.079754     -6.075580   1.000000   1.000000
   63       -6.076802     -6.072663   1.000000   1.000000
   64       -6.071603     -6.068763   1.000000   1.000000
   65       -6.067910     -6.059329   1.000000   1.000000
   66       -6.062601     -6.058000   1.000000   1.000000
   67       -6.056789     -6.052432   1.000000   1.000000
   68       -6.056587     -6.050113   1.000000   1.000000
   69       -6.053473     -6.045204   1.000000   1.000000
   70       -6.027472     -6.021060   1.000000   1.000000
   71       -6.022883     -6.017942   1.000000   1.000000
   72       -6.021949     -6.017476   1.000000   1.000000
   73       -6.006627     -6.002349   1.000000   1.000000
   74       -6.006493     -6.002143   1.000000   1.000000
   75       -5.997860     -5.986096   1.000000   1.000000
   76       -5.978262     -5.965814   1.000000   1.000000
   77       -5.977154     -5.964132   1.000000   1.000000
   78       -5.939745     -5.930184   1.000000   1.000000
   79       -5.866811     -5.807936   1.000000   1.000000
   80       -5.842514     -5.778765   1.000000   1.000000
   81       -5.163507     -5.102873   1.000000   1.000000
   82       -4.552724     -4.544898   1.000000   1.000000
   83       -4.389039     -4.384300   1.000000   1.000000
   84       -4.384971     -4.380269   1.000000   1.000000
   85       -4.366074     -4.356253   1.000000   1.000000
   86       -4.356446     -4.345910   1.000000   1.000000
   87       -4.350255     -4.344365   1.000000   1.000000
   88       -4.347638     -4.342617   1.000000   1.000000
   89       -4.341522     -4.335127   1.000000   1.000000
   90       -4.340601     -4.335063   1.000000   1.000000
   91       -4.305463     -4.276947   1.000000   1.000000
   92       -4.294540     -4.263497   1.000000   1.000000
   93       -3.952280     -3.893420   1.000000   1.000000
   94       -3.139206     -3.127205   1.000000   1.000000
   95       -3.084468     -3.080893   1.000000   1.000000
   96       -3.083867     -3.080067   1.000000   1.000000
   97       -3.067330     -3.059248   1.000000   1.000000
   98       -3.065626     -3.057816   1.000000   1.000000
   99       -3.023398     -3.016928   1.000000   1.000000
  100       -2.800975     -2.782589   1.000000   1.000000
  101       -2.611800     -2.608363   1.000000   1.000000
  102       -2.609907     -2.606694   1.000000   1.000000
  103       -2.581314     -2.580810   1.000000   1.000000
  104       -2.573906     -2.571522   1.000000   1.000000
  105       -2.572235     -2.569974   1.000000   1.000000
  106       -2.565128     -2.562389   1.000000   1.000000
  107       -2.561533     -2.558564   1.000000   1.000000
  108       -2.560252     -2.558120   1.000000   1.000000
  109       -2.556347     -2.554063   1.000000   1.000000
  110       -2.545642     -2.540828   1.000000   1.000000
  111       -2.543132     -2.538548   1.000000   1.000000
  112       -2.535990     -2.532511   1.000000   1.000000
  113       -2.534793     -2.531440   1.000000   1.000000
  114       -2.516331     -2.509585   1.000000   1.000000
  115       -2.496429     -2.483711   1.000000   1.000000
  116       -2.476284     -2.466334   1.000000   1.000000
  117       -2.469640     -2.460806   1.000000   1.000000
  118       -2.452065     -2.446846   1.000000   1.000000
  119       -2.447597     -2.436506   1.000000   1.000000
  120       -2.443834     -2.434416   1.000000   1.000000
  121       -2.442086     -2.420912   1.000000   1.000000
  122       -2.435302     -2.419118   1.000000   1.000000
  123       -2.405469     -2.401782   1.000000   1.000000
  124       -2.384126     -2.379974   1.000000   1.000000
  125       -2.381508     -2.377838   1.000000   1.000000
  126       -2.380626     -2.371985   1.000000   1.000000
  127       -2.367007     -2.362420   1.000000   1.000000
  128       -2.363858     -2.359027   1.000000   1.000000
  129       -2.362733     -2.357783   1.000000   1.000000
  130       -2.360339     -2.357030   1.000000   1.000000
  131       -2.359440     -2.356140   1.000000   1.000000
  132       -2.355675     -2.350055   1.000000   1.000000
  133       -2.350740     -2.340547   1.000000   1.000000
  134       -2.333389     -2.327657   1.000000   1.000000
  135       -2.333276     -2.327445   1.000000   1.000000
  136       -2.320365     -2.313819   1.000000   1.000000
  137       -2.319052     -2.313256   1.000000   1.000000
  138       -2.311455     -2.306101   1.000000   1.000000
  139       -2.309941     -2.297673   1.000000   1.000000
  140       -2.307348     -2.295908   1.000000   1.000000
  141       -2.301563     -2.289072   1.000000   1.000000
  142       -2.298182     -2.283502   1.000000   1.000000
  143       -2.294218     -2.264828   1.000000   1.000000
  144       -2.060589     -2.044006   1.000000   1.000000
  145       -1.975379     -1.923569   1.000000   1.000000
  146       -1.947568     -1.894881   1.000000   1.000000
  147       -1.540002     -1.518807   1.000000   1.000000
  148       -1.279415     -1.273447   1.000000   1.000000
  149       -1.275453     -1.266632   1.000000   1.000000
  150       -1.271728     -1.258227   1.000000   1.000000
  151       -1.245565     -1.237027   1.000000   1.000000
  152       -1.236442     -1.233030   1.000000   1.000000
  153       -1.235471     -1.229818   1.000000   1.000000
  154       -1.232098     -1.228541   1.000000   1.000000
  155       -1.207119     -1.201000   1.000000   1.000000
  156       -1.204962     -1.198936   1.000000   1.000000
  157       -1.099419     -1.045372   1.000000   1.000000
  158       -1.083198     -1.023616   1.000000   1.000000
  159       -0.117808     -0.051110   1.000000   1.000000
  160        0.237776      0.243733   1.000000   1.000000
  161        0.239989      0.245638   1.000000   1.000000
  162        0.242617      0.252368   1.000000   1.000000
  163        0.291293      0.294196   1.000000   1.000000
  164        0.295903      0.300366   1.000000   1.000000
  165        0.298743      0.303352   1.000000   1.000000
  166        0.299733      0.303869   1.000000   1.000000
  167        0.301631      0.305563   1.000000   1.000000
  168        0.303833      0.310188   1.000000   1.000000
  169        0.311790      0.314827   1.000000   1.000000
  170        0.312270      0.321574   1.000000   1.000000
  171        0.323233      0.331220   1.000000   1.000000
  172        0.328486      0.334869   1.000000   1.000000
  173        0.334035      0.341448   1.000000   1.000000
  174        0.343521      0.352495   1.000000   1.000000
  175        0.343568      0.354305   1.000000   1.000000
  176        0.466501      0.482077   1.000000   1.000000
  177        0.471647      0.486879   1.000000   1.000000
  178        0.485922      0.496747   1.000000   1.000000
  179        0.517592      0.538492   1.000000   1.000000
  180        0.899198      0.906154   1.000000   1.000000
  181        0.906056      0.912524   1.000000   1.000000
  182        0.916918      0.936090   1.000000   1.000000
  183        0.986667      0.990455   1.000000   1.000000
  184        0.995166      0.996606   1.000000   1.000000
  185        0.996874      1.000570   1.000000   1.000000
  186        0.997335      1.002705   1.000000   1.000000
  187        1.001146      1.006997   1.000000   1.000000
  188        1.003416      1.007808   1.000000   1.000000
  189        1.008905      1.014228   1.000000   1.000000
  190        1.010853      1.014646   1.000000   1.000000
  191        1.014589      1.018105   1.000000   1.000000
  192        1.017633      1.023926   1.000000   1.000000
  193        1.018519      1.024120   1.000000   1.000000
  194        1.026007      1.035245   1.000000   1.000000
  195        1.029219      1.037317   1.000000   1.000000
  196        1.039113      1.049352   1.000000   1.000000
  197        1.043860      1.053145   1.000000   1.000000
  198        1.044081      1.056315   1.000000   1.000000
  199        1.047769      1.059772   1.000000   1.000000
  200        1.051413      1.061713   1.000000   1.000000
  201        1.226473      1.280911   1.000000   1.000000
  202        1.252195      1.310110   1.000000   1.000000
  203        1.772279      1.778781   1.000000   1.000000
  204        1.773862      1.782018   1.000000   1.000000
  205        1.778599      1.788575   1.000000   1.000000
  206        1.825141      1.826835   1.000000   1.000000
  207        1.827757      1.829840   1.000000   1.000000
  208        1.828806      1.831091   1.000000   1.000000
  209        1.829650      1.831641   1.000000   1.000000
  210        1.837878      1.840839   1.000000   1.000000
  211        1.838382      1.840974   1.000000   1.000000
  212        1.845376      1.849071   1.000000   1.000000
  213        1.847814      1.852500   1.000000   1.000000
  214        1.853724      1.856376   1.000000   1.000000
  215        1.866046      1.869093   1.000000   1.000000
  216        1.868161      1.871308   1.000000   1.000000
  217        1.905630      1.917760   1.000000   1.000000
  218        1.913654      1.920680   1.000000   1.000000
  219        1.914610      1.923009   1.000000   1.000000
  220        1.927376      1.935117   1.000000   1.000000
  221        1.937914      1.943352   1.000000   1.000000
  222        1.970760      1.984764   1.000000   1.000000
  223        1.972152      1.986032   1.000000   1.000000
  224        2.046474      2.050018   1.000000   1.000000
  225        2.053100      2.063715   1.000000   1.000000
  226        2.055493      2.065826   1.000000   1.000000
  227        2.128256      2.164928   1.000000   1.000000
  228        2.268830      2.274405   1.000000   1.000000
  229        2.274545      2.280221   1.000000   1.000000
  230        2.355693      2.365143   1.000000   1.000000
  231        2.362634      2.366212   1.000000   1.000000
  232        2.363175      2.366739   1.000000   1.000000
  233        2.369064      2.374733   1.000000   1.000000
  234        2.371681      2.375016   1.000000   1.000000
  235        2.374580      2.379846   1.000000   1.000000
  236        2.375272      2.381734   1.000000   1.000000
  237        2.377152      2.384102   1.000000   1.000000
  238        2.382304      2.387444   1.000000   1.000000
  239        2.382729      2.390149   1.000000   1.000000
  240        2.389797      2.397486   1.000000   1.000000
  241        2.400354      2.407958   1.000000   1.000000
  242        2.407703      2.412957   1.000000   1.000000
  243        2.416782      2.425586   1.000000   1.000000
  244        2.422350      2.434979   1.000000   1.000000
  245        2.428118      2.435790   1.000000   1.000000
  246        2.441746      2.454291   1.000000   1.000000
  247        2.447757      2.462565   1.000000   1.000000
  248        2.451818      2.466452   1.000000   1.000000
  249        2.478249      2.497660   1.000000   1.000000
  250        2.497903      2.516739   1.000000   1.000000
  251        2.500808      2.517979   1.000000   1.000000
  252        2.552795      2.560436   1.000000   1.000000
  253        2.558690      2.567328   1.000000   1.000000
  254        2.835530      2.856968   1.000000   1.000000
  255        2.846078      2.889799   1.000000   1.000000
  256        2.865749      2.909636   1.000000   1.000000
  257        3.382335      3.389128   1.000000   1.000000
  258        3.384585      3.391357   1.000000   1.000000
  259        3.427606      3.437922   1.000000   1.000000
  260        3.458225      3.467422   1.000000   1.000000
  261        3.459597      3.476651   1.000000   1.000000
  262        3.461833      3.478597   1.000000   1.000000
  263        3.579873      3.654806   1.000000   1.000000
  264        3.922942      3.935315   1.000000   1.000000
  265        3.930242      3.943261   1.000000   1.000000
  266        4.000743      4.007013   1.000000   1.000000
  267        4.006494      4.011602   1.000000   1.000000
  268        4.008578      4.012680   1.000000   1.000000
  269        4.012855      4.019232   1.000000   1.000000
  270        4.018923      4.025856   1.000000   1.000000
  271        4.019365      4.026973   1.000000   1.000000
  272        4.053368      4.066340   1.000000   1.000000
  273        4.086406      4.100605   1.000000   1.000000
  274        4.100163      4.115241   1.000000   1.000000
  275        4.268830      4.273502   1.000000   1.000000
  276        4.272161      4.276744   1.000000   1.000000
  277        4.371938      4.384436   1.000000   1.000000
  278        4.392511      4.400609   1.000000   1.000000
  279        4.396951      4.404237   1.000000   1.000000
  280        4.398645      4.405449   1.000000   1.000000
  281        4.399582      4.415332   1.000000   1.000000
  282        4.404360      4.417060   1.000000   1.000000
  283        4.408162      4.423204   1.000000   1.000000
  284        4.422661      4.432842   1.000000   1.000000
  285        4.458751      4.468557   1.000000   1.000000
  286        4.459857      4.470226   1.000000   1.000000
  287        4.463185      4.476902   1.000000   1.000000
  288        4.604372      4.614523   1.000000   1.000000
  289        4.608332      4.618190   1.000000   1.000000
  290        4.644902      4.648136   1.000000   1.000000
  291        4.671361      4.674062   1.000000   1.000000
  292        4.671872      4.674542   1.000000   1.000000
  293        4.674546      4.676856   1.000000   1.000000
  294        4.685753      4.688773   1.000000   1.000000
  295        4.688352      4.690922   1.000000   1.000000
  296        4.689795      4.692125   1.000000   1.000000
  297        4.693762      4.696076   1.000000   1.000000
  298        4.695547      4.698158   1.000000   1.000000
  299        4.699470      4.702425   1.000000   1.000000
  300        4.700964      4.705652   1.000000   1.000000
  301        4.707232      4.710028   1.000000   1.000000
  302        4.709522      4.712370   1.000000   1.000000
  303        4.730646      4.738848   1.000000   1.000000
  304        4.732980      4.739025   1.000000   1.000000
  305        4.738150      4.746770   1.000000   1.000000
  306        4.745580      4.751942   1.000000   1.000000
  307        4.745821      4.754444   1.000000   1.000000
  308        4.751374      4.758671   1.000000   1.000000
  309        4.754531      4.764663   1.000000   1.000000
  310        4.761284      4.766020   1.000000   1.000000
  311        4.810466      4.815989   1.000000   1.000000
  312        4.816480      4.822466   1.000000   1.000000
  313        4.834031      4.841382   1.000000   1.000000
  314        4.852289      4.866204   1.000000   1.000000
  315        4.865664      4.867972   1.000000   1.000000
  316        4.870608      4.873593   1.000000   1.000000
  317        4.872024      4.874982   1.000000   1.000000
  318        4.872484      4.875679   1.000000   1.000000
  319        4.872514      4.876267   1.000000   1.000000
  320        4.874727      4.878525   1.000000   1.000000
  321        4.877572      4.880689   1.000000   1.000000
  322        4.879823      4.883689   1.000000   1.000000
  323        4.881133      4.886838   1.000000   1.000000
  324        4.884338      4.888094   1.000000   1.000000
  325        4.885992      4.890823   1.000000   1.000000
  326        4.887765      4.893166   1.000000   1.000000
  327        4.894814      4.898129   1.000000   1.000000
  328        4.895330      4.902247   1.000000   1.000000
  329        4.899519      4.902531   1.000000   1.000000
  330        4.899660      4.903371   1.000000   1.000000
  331        4.901078      4.907023   1.000000   1.000000
  332        4.903241      4.907133   1.000000   1.000000
  333        4.905024      4.915753   1.000000   1.000000
  334        4.910682      4.916977   1.000000   1.000000
  335        4.913470      4.925953   1.000000   1.000000
  336        4.919349      4.927721   1.000000   1.000000
  337        4.923585      4.933331   1.000000   1.000000
  338        4.926544      4.937255   1.000000   1.000000
  339        4.953256      4.960628   1.000000   1.000000
  340        4.953796      4.964563   1.000000   1.000000
  341        4.960869      4.968210   1.000000   1.000000
  342        4.961692      4.971889   1.000000   1.000000
  343        4.970520      4.979445   1.000000   1.000000
  344        4.986384      4.993355   1.000000   1.000000
  345        4.991390      4.997687   1.000000   1.000000
  346        5.008648      5.020690   1.000000   1.000000
  347        5.010356      5.025225   1.000000   1.000000
  348        5.016366      5.040263   1.000000   1.000000
  349        5.025819      5.045715   1.000000   1.000000
  350        5.063193      5.076166   1.000000   1.000000
  351        5.069031      5.086002   1.000000   1.000000
  352        5.075693      5.090946   1.000000   1.000000
  353        5.089466      5.102231   1.000000   1.000000
  354        5.156650      5.192378   1.000000   1.000000
  355        5.177378      5.216736   1.000000   1.000000
  356        5.459893      5.473894   1.000000   1.000000
  357        5.462388      5.478640   1.000000   1.000000
  358        5.464461      5.483136   1.000000   1.000000
  359        5.640718      5.646485   1.000000   1.000000
  360        5.642502      5.648096   1.000000   1.000000
  361        5.693891      5.696816   1.000000   1.000000
  362        5.701599      5.703999   1.000000   1.000000
  363        5.704814      5.707517   1.000000   1.000000
  364        5.706915      5.708965   1.000000   1.000000
  365        5.727753      5.737187   1.000000   1.000000
  366        5.736315      5.741132   1.000000   1.000000
  367        5.736755      5.742008   1.000000   1.000000
  368        5.740809      5.749547   1.000000   1.000000
  369        5.753441      5.763468   1.000000   1.000000
  370        5.754042      5.766482   1.000000   1.000000
  371        5.760564      5.770376   1.000000   1.000000
  372        5.764318      5.775424   1.000000   1.000000
  373        5.767956      5.783130   1.000000   1.000000
  374        5.769130      5.784079   1.000000   1.000000
  375        5.775551      5.788683   1.000000   1.000000
  376        5.798245      5.804034   1.000000   1.000000
  377        5.843219      5.867876   1.000000   1.000000
  378        5.856100      5.884739   1.000000   1.000000
  379        5.882160      5.914759   1.000000   1.000000
  380        6.592123      6.610354   1.000000   1.000000
  381        6.667633      6.737013   1.000000   1.000000
  382        6.676331      6.746360   1.000000   1.000000
  383        7.032638      7.092909   1.000000   1.000000
  384        7.079201      7.096055   1.000000   1.000000
  385        7.080621      7.127786   1.000000   1.000000
  386        7.120964      7.133387   1.000000   1.000000
  387        7.131197      7.133737   1.000000   1.000000
  388        7.131619      7.150104   1.000000   1.000000
  389        7.146903      7.150883   1.000000   1.000000
  390        7.148403      7.162464   1.000000   1.000000
  391        7.148723      7.163283   1.000000   1.000000
  392        7.154772      7.190881   1.000000   1.000000
  393        7.226403      7.231976   1.000000   1.000000
  394        7.227065      7.232453   1.000000   1.000000
  395        7.235288      7.243428   1.000000   1.000000
  396        7.328379      7.333980   1.000000   1.000000
  397        7.330240      7.335200   1.000000   1.000000
  398        7.387866      7.395652   1.000000   1.000000
  399        7.392445      7.397696   1.000000   1.000000
  400        7.396037      7.403431   1.000000   1.000000
  401        7.397452      7.404176   1.000000   1.000000
  402        7.400733      7.406863   1.000000   1.000000
  403        7.402489      7.413553   1.000000   1.000000
  404        7.403680      7.413981   1.000000   1.000000
  405        7.407661      7.416483   1.000000   1.000000
  406        7.427914      7.443607   1.000000   1.000000
  407        7.433293      7.446918   1.000000   1.000000
  408        7.449581      7.463217   1.000000   1.000000
  409        7.460343      7.474318   1.000000   1.000000
  410        7.464914      7.475482   1.000000   1.000000
  411        7.478008      7.488658   1.000000   1.000000
  412        7.501946      7.509956   1.000000   1.000000
  413        7.507106      7.514182   1.000000   1.000000
  414        8.068103      8.081182   1.000000   1.000000
  415        8.080389      8.109374   1.000000   1.000000
  416        8.082166      8.111344   1.000000   1.000000
  417        8.314115      8.321717   1.000000   1.000000
  418        8.315314      8.322665   1.000000   1.000000
  419        8.323796      8.326173   1.000000   1.000000
  420        8.339766      8.344201   1.000000   1.000000
  421        8.351194      8.356074   1.000000   1.000000
  422        8.358730      8.364161   1.000000   1.000000
  423        8.358749      8.371899   1.000000   1.000000
  424        8.399459      8.416682   1.000000   1.000000
  425        8.415106      8.432517   1.000000   1.000000
  426        8.442166      8.777031   1.000000   1.000000
  427        9.505948      9.604711   1.000000   1.000000
  428        9.578808      9.617259   1.000000   1.000000
  429        9.581788      9.622435   1.000000   1.000000
  430       10.524762     11.025538   1.000000   1.000000
  431       11.534017     12.714689   1.000000   0.000000
  432       11.609777     12.828124   1.000000   0.000000
  433       13.884309     13.888435   0.000000   0.000000
  434       13.888208     13.892173   0.000000   0.000000
  435       13.901777     13.912467   0.000000   0.000000
  436       13.943016     13.954385   0.000000   0.000000
  437       13.943818     13.955180   0.000000   0.000000
  438       13.961972     13.971849   0.000000   0.000000
  439       14.438144     14.443309   0.000000   0.000000
  440       14.523211     14.531538   0.000000   0.000000
  441       14.524685     14.531859   0.000000   0.000000
  442       14.537742     14.543915   0.000000   0.000000
  443       14.538029     14.545655   0.000000   0.000000
  444       14.598696     14.607656   0.000000   0.000000
  445       14.670442     14.675477   0.000000   0.000000
  446       14.676119     14.680948   0.000000   0.000000
  447       14.722697     14.750821   0.000000   0.000000
  448       14.773223     14.790138   0.000000   0.000000
  449       14.776256     14.794223   0.000000   0.000000
  450       14.792919     14.801521   0.000000   0.000000
  451       15.403131     15.417613   0.000000   0.000000
  452       15.412859     15.428845   0.000000   0.000000
  453       15.412961     15.432074   0.000000   0.000000
  454       15.978193     15.986455   0.000000   0.000000
  455       16.063799     16.067263   0.000000   0.000000
  456       16.066410     16.069887   0.000000   0.000000
  457       16.079144     16.082025   0.000000   0.000000
  458       16.110812     16.120335   0.000000   0.000000
  459       16.114005     16.123359   0.000000   0.000000
  460       16.124881     16.131012   0.000000   0.000000
  461       16.126006     16.132677   0.000000   0.000000
  462       16.129491     16.133682   0.000000   0.000000
  463       16.146458     16.151918   0.000000   0.000000
  464       16.147921     16.153124   0.000000   0.000000
  465       16.184942     16.191817   0.000000   0.000000
  466       16.606158     16.610545   0.000000   0.000000
  467       16.791083     16.793524   0.000000   0.000000
  468       16.792435     16.794775   0.000000   0.000000
  469       16.813673     16.816618   0.000000   0.000000
  470       16.818781     16.821700   0.000000   0.000000
  471       16.821964     16.824616   0.000000   0.000000
  472       16.822885     16.825313   0.000000   0.000000
  473       16.825832     16.829370   0.000000   0.000000
  474       16.827924     16.833052   0.000000   0.000000
  475       16.830599     16.836737   0.000000   0.000000
  476       16.830991     16.838744   0.000000   0.000000
  477       16.843649     16.848603   0.000000   0.000000
  478       16.848151     16.854411   0.000000   0.000000
  479       16.852418     16.856978   0.000000   0.000000
  480       16.858848     16.864915   0.000000   0.000000
  481       16.878026     16.885618   0.000000   0.000000
  482       16.882142     16.891251   0.000000   0.000000
  483       16.885256     16.894371   0.000000   0.000000
  484       16.922696     16.930813   0.000000   0.000000
  485       16.929984     16.937629   0.000000   0.000000
  486       16.933809     16.941366   0.000000   0.000000
  487       16.968071     16.976733   0.000000   0.000000
  488       16.969554     16.977138   0.000000   0.000000
  489       16.973313     16.980624   0.000000   0.000000
  490       17.236296     17.240998   0.000000   0.000000
  491       17.276621     17.282392   0.000000   0.000000
  492       17.281400     17.287359   0.000000   0.000000
  493       17.325122     17.327104   0.000000   0.000000
  494       17.329700     17.331851   0.000000   0.000000
  495       17.339878     17.341992   0.000000   0.000000
  496       17.341528     17.343687   0.000000   0.000000
  497       17.344334     17.346214   0.000000   0.000000
  498       17.346338     17.348383   0.000000   0.000000
  499       17.349216     17.352329   0.000000   0.000000
  500       17.361043     17.363765   0.000000   0.000000
  501       17.364875     17.367598   0.000000   0.000000
  502       17.379051     17.381034   0.000000   0.000000
  503       17.396291     17.399654   0.000000   0.000000
  504       17.397904     17.401278   0.000000   0.000000
  505       17.420268     17.423939   0.000000   0.000000
  506       17.422791     17.426482   0.000000   0.000000
  507       17.427067     17.430828   0.000000   0.000000
  508       17.432612     17.437163   0.000000   0.000000
  509       17.436744     17.440734   0.000000   0.000000
  510       17.438803     17.447151   0.000000   0.000000
  511       17.443585     17.448272   0.000000   0.000000
  512       17.459860     17.467606   0.000000   0.000000