       N       E                     dE             d eps       ncg     rms          rms(c)
DAV:   1     0.260148592295E+04    0.26015E+04   -0.45181E+05  2592   0.131E+03
DAV:   2    -0.168416417492E+04   -0.42857E+04   -0.40475E+04  3120   0.271E+02
DAV:   3    -0.191145490322E+04   -0.22729E+03   -0.22480E+03  3352   0.563E+01
DAV:   4    -0.191522915176E+04   -0.37742E+01   -0.37545E+01  3344   0.725E+00
DAV:   5    -0.191531692034E+04   -0.87769E-01   -0.87632E-01  3344   0.107E+00    0.867E+01
DAV:   6    -0.189894622261E+04    0.16371E+02   -0.90332E+01  2976   0.108E+01    0.466E+01
DAV:   7    -0.192926865682E+04   -0.30322E+02   -0.59433E+01  2920   0.858E+00    0.201E+01
DAV:   8    -0.193418010052E+04   -0.49114E+01   -0.94167E+00  3080   0.384E+00    0.380E+00
DAV:   9    -0.193431911052E+04   -0.13901E+00   -0.45259E-01  3136   0.113E+00    0.196E+00
DAV:  10    -0.193430606352E+04    0.13047E-01   -0.17842E-01  3120   0.557E-01    0.545E-01
DAV:  11    -0.193430185881E+04    0.42047E-02   -0.16972E-02  3160   0.182E-01    0.169E-01
DAV:  12    -0.193430272411E+04   -0.86529E-03   -0.11480E-03  3336   0.644E-02    0.817E-02
DAV:  13    -0.193430318040E+04   -0.45629E-03   -0.70492E-04  3232   0.436E-02    0.365E-02
DAV:  14    -0.193430327027E+04   -0.89869E-04   -0.14807E-04  3184   0.182E-02    0.190E-02
DAV:  15    -0.193430329205E+04   -0.21785E-04   -0.28144E-05  2464   0.846E-03    0.646E-03
DAV:  16    -0.193430329482E+04   -0.27738E-05   -0.52794E-06  1624   0.343E-03
   1 F= -.19343033E+04 E0= -.19343033E+04  d E =0.000000E+00  mag=     2.0007
