       N       E                     dE             d eps       ncg     rms          ort
SDA:   1    -0.193175530065E+04   -0.19318E+04   -0.24267E+00   648   0.121E+01 0.000E+00
DMP:   2    -0.193196207300E+04   -0.20677E+00   -0.20119E+00   648   0.562E+00 0.854E+00
DMP:   3    -0.193211588574E+04   -0.15381E+00   -0.87975E-01   648   0.164E+00 0.531E+00
DMP:   4    -0.193217601690E+04   -0.60131E-01   -0.27305E-01   648   0.534E-01 0.160E+00
DMP:   5    -0.193219307544E+04   -0.17059E-01   -0.12640E-01   648   0.460E-01 0.331E-01
DMP:   6    -0.193220271679E+04   -0.96414E-02   -0.11975E-01   648   0.429E-01 0.327E-01
DMP:   7    -0.193221267959E+04   -0.99628E-02   -0.93771E-02   648   0.264E-01 0.394E-01
DMP:   8    -0.193222002359E+04   -0.73440E-02   -0.50634E-02   648   0.117E-01 0.263E-01
DMP:   9    -0.193222377078E+04   -0.37472E-02   -0.24277E-02   648   0.592E-02 0.120E-01
DMP:  10    -0.193222564717E+04   -0.18764E-02   -0.15148E-02   648   0.419E-02 0.651E-02
DMP:  11    -0.193222692238E+04   -0.12752E-02   -0.10568E-02   648   0.262E-02 0.512E-02
DMP:  12    -0.193222782085E+04   -0.89847E-03   -0.65249E-03   648   0.135E-02 0.367E-02
DMP:  13    -0.193222836955E+04   -0.54870E-03   -0.37509E-03   648   0.723E-03 0.222E-02
DMP:  14    -0.193222868805E+04   -0.31850E-03   -0.23606E-03   648   0.496E-03 0.132E-02
DMP:  15    -0.193222889388E+04   -0.20582E-03   -0.17148E-03   648   0.391E-03 0.897E-03
DMP:  16    -0.193222904513E+04   -0.15125E-03   -0.13151E-03   648   0.303E-03 0.683E-03
DMP:  17    -0.193222915972E+04   -0.11460E-03   -0.97878E-04   648   0.218E-03 0.523E-03
DMP:  18    -0.193222924346E+04   -0.83738E-04   -0.70716E-04   648   0.152E-03 0.388E-03
DMP:  19    -0.193222930306E+04   -0.59602E-04   -0.51501E-04   648   0.109E-03 0.285E-03
DMP:  20    -0.193222934576E+04   -0.42693E-04   -0.37700E-04   648   0.775E-04 0.214E-03
DMP:  21    -0.193222937628E+04   -0.30521E-04   -0.28013E-04   648   0.571E-04 0.160E-03
DMP:  22    -0.193222939835E+04   -0.22072E-04   -0.21604E-04   648   0.453E-04 0.121E-03
DMP:  23    -0.193222941494E+04   -0.16591E-04   -0.17408E-04   648   0.379E-04 0.945E-04
DMP:  24    -0.193222942800E+04   -0.13061E-04   -0.14714E-04   648   0.336E-04 0.769E-04
DMP:  25    -0.193222943882E+04   -0.10821E-04   -0.12745E-04   648   0.299E-04 0.651E-04
DMP:  26    -0.193222944801E+04   -0.91927E-05   -0.11118E-04   648   0.263E-04 0.563E-04
DMP:  27    -0.193222945587E+04   -0.78599E-05   -0.96839E-05   648   0.229E-04 0.490E-04
   1 F= -.19322295E+04 E0= -.19322295E+04  d E =-.193223E+04  mag=     2.0000
       N       E                     dE             d eps       ncg     rms          ort
SDA:   1    -0.190194704177E+04    0.30282E+02   -0.11701E+02   648   0.585E+02 0.000E+00
DMP:   2    -0.191225160681E+04   -0.10305E+02   -0.11699E+02   648   0.354E+02 0.445E+02
DMP:   3    -0.192166453165E+04   -0.94129E+01   -0.66576E+01   648   0.148E+02 0.356E+02
DMP:   4    -0.192659012965E+04   -0.49256E+01   -0.26927E+01   648   0.516E+01 0.160E+02
DMP:   5    -0.192842624267E+04   -0.18361E+01   -0.95928E+00   648   0.224E+01 0.491E+01
DMP:   6    -0.192904259817E+04   -0.61636E+00   -0.39066E+00   648   0.124E+01 0.138E+01
DMP:   7    -0.192928345574E+04   -0.24086E+00   -0.17086E+00   648   0.613E+00 0.465E+00
DMP:   8    -0.192937967508E+04   -0.96219E-01   -0.70923E-01   648   0.295E+00 0.115E+00
DMP:   9    -0.192941809575E+04   -0.38421E-01   -0.42300E-01   648   0.193E+00 0.349E-01
DMP:  10    -0.192944779296E+04   -0.29697E-01   -0.37621E-01   648   0.142E+00 0.893E-01
DMP:  11    -0.192947822841E+04   -0.30435E-01   -0.29595E-01   648   0.861E-01 0.119E+00
DMP:  12    -0.192950204065E+04   -0.23812E-01   -0.17902E-01   648   0.414E-01 0.926E-01
DMP:  13    -0.192951581325E+04   -0.13773E-01   -0.86962E-02   648   0.173E-01 0.504E-01
DMP:  14    -0.192952215514E+04   -0.63419E-02   -0.38701E-02   648   0.791E-02 0.220E-01
DMP:  15    -0.192952486309E+04   -0.27080E-02   -0.19621E-02   648   0.478E-02 0.968E-02
DMP:  16    -0.192952623322E+04   -0.13701E-02   -0.12816E-02   648   0.344E-02 0.571E-02
DMP:  17    -0.192952714955E+04   -0.91632E-03   -0.98952E-03   648   0.262E-02 0.448E-02
DMP:  18    -0.192952786774E+04   -0.71820E-03   -0.82500E-03   648   0.211E-02 0.388E-02
DMP:  19    -0.192952847025E+04   -0.60251E-03   -0.72486E-03   648   0.181E-02 0.350E-02
DMP:  20    -0.192952900066E+04   -0.53040E-03   -0.65607E-03   648   0.161E-02 0.322E-02
DMP:  21    -0.192952947862E+04   -0.47796E-03   -0.59860E-03   648   0.145E-02 0.298E-02
DMP:  22    -0.192952991057E+04   -0.43195E-03   -0.54790E-03   648   0.132E-02 0.273E-02
DMP:  23    -0.192953030178E+04   -0.39120E-03   -0.50442E-03   648   0.123E-02 0.250E-02
DMP:  24    -0.192953065857E+04   -0.35680E-03   -0.46435E-03   648   0.113E-02 0.229E-02
DMP:  25    -0.192953098375E+04   -0.32517E-03   -0.42330E-03   648   0.103E-02 0.210E-02
DMP:  26    -0.192953127633E+04   -0.29259E-03   -0.38034E-03   648   0.915E-03 0.190E-02
DMP:  27    -0.192953153492E+04   -0.25858E-03   -0.33660E-03   648   0.800E-03 0.170E-02
DMP:  28    -0.192953175938E+04   -0.22447E-03   -0.29533E-03   648   0.697E-03 0.150E-02
DMP:  29    -0.192953195247E+04   -0.19308E-03   -0.25836E-03   648   0.608E-03 0.132E-02
DMP:  30    -0.192953211817E+04   -0.16570E-03   -0.22636E-03   648   0.534E-03 0.115E-02
DMP:  31    -0.192953226068E+04   -0.14251E-03   -0.19885E-03   648   0.470E-03 0.101E-02
DMP:  32    -0.192953238354E+04   -0.12286E-03   -0.17457E-03   648   0.413E-03 0.884E-03
DMP:  33    -0.192953248916E+04   -0.10562E-03   -0.15250E-03   648   0.361E-03 0.774E-03
DMP:  34    -0.192953257931E+04   -0.90145E-04   -0.13179E-03   648   0.310E-03 0.673E-03
DMP:  35    -0.192953265519E+04   -0.75887E-04   -0.11140E-03   648   0.258E-03 0.576E-03
DMP:  36    -0.192953271748E+04   -0.62282E-04   -0.91029E-04   648   0.205E-03 0.481E-03
DMP:  37    -0.192953276678E+04   -0.49303E-04   -0.71292E-04   648   0.156E-03 0.386E-03
DMP:  38    -0.192953280429E+04   -0.37510E-04   -0.53927E-04   648   0.115E-03 0.298E-03
DMP:  39    -0.192953283216E+04   -0.27876E-04   -0.40080E-04   648   0.842E-04 0.224E-03
DMP:  40    -0.192953285284E+04   -0.20671E-04   -0.30216E-04   648   0.657E-04 0.164E-03
DMP:  41    -0.192953286883E+04   -0.15996E-04   -0.22866E-04   648   0.521E-04 0.120E-03
DMP:  42    -0.192953288140E+04   -0.12568E-04   -0.17777E-04   648   0.446E-04 0.852E-04
DMP:  43    -0.192953289165E+04   -0.10253E-04   -0.13588E-04   648   0.357E-04 0.620E-04
DMP:  44    -0.192953289979E+04   -0.81363E-05   -0.10541E-04   648   0.286E-04 0.464E-04
DMP:  45    -0.192953290594E+04   -0.61523E-05   -0.87557E-05   648   0.259E-04 0.343E-04
   2 F= -.19295329E+04 E0= -.19295329E+04  d E =0.269655E+01  mag=     2.0000
       N       E                     dE             d eps       ncg     rms          ort
SDA:   1    -0.191520616035E+04    0.14327E+02   -0.73401E+01   648   0.367E+02 0.000E+00
DMP:   2    -0.192165844224E+04   -0.64523E+01   -0.72623E+01   648   0.219E+02 0.278E+02
DMP:   3    -0.192748868328E+04   -0.58302E+01   -0.40912E+01   648   0.902E+01 0.220E+02
DMP:   4    -0.193051229777E+04   -0.30236E+01   -0.16577E+01   648   0.319E+01 0.981E+01
DMP:   5    -0.193164715457E+04   -0.11349E+01   -0.60741E+00   648   0.143E+01 0.309E+01
DMP:   6    -0.193204270776E+04   -0.39555E+00   -0.25509E+00   648   0.788E+00 0.938E+00
DMP:   7    -0.193220175916E+04   -0.15905E+00   -0.10983E+00   648   0.379E+00 0.327E+00
DMP:   8    -0.193226270207E+04   -0.60943E-01   -0.42420E-01   648   0.177E+00 0.672E-01
DMP:   9    -0.193228418869E+04   -0.21487E-01   -0.24364E-01   648   0.118E+00 0.647E-02
DMP:  10    -0.193230083703E+04   -0.16648E-01   -0.22471E-01   648   0.881E-01 0.466E-01
DMP:  11    -0.193231892435E+04   -0.18087E-01   -0.17673E-01   648   0.522E-01 0.696E-01
DMP:  12    -0.193233302994E+04   -0.14106E-01   -0.10345E-01   648   0.240E-01 0.534E-01
DMP:  13    -0.193234088909E+04   -0.78591E-02   -0.47912E-02   648   0.970E-02 0.275E-01
DMP:  14    -0.193234430325E+04   -0.34142E-02   -0.19614E-02   648   0.428E-02 0.106E-01
DMP:  15    -0.193234562140E+04   -0.13181E-02   -0.86430E-03   648   0.240E-02 0.371E-02
DMP:  16    -0.193234619788E+04   -0.57648E-03   -0.47320E-03   648   0.149E-02 0.168E-02
DMP:  17    -0.193234652121E+04   -0.32333E-03   -0.28191E-03   648   0.868E-03 0.104E-02
DMP:  18    -0.193234671664E+04   -0.19543E-03   -0.16892E-03   648   0.490E-03 0.682E-03
DMP:  19    -0.193234683847E+04   -0.12183E-03   -0.11348E-03   648   0.311E-03 0.493E-03
DMP:  20    -0.193234692421E+04   -0.85738E-04   -0.83411E-04   648   0.209E-03 0.401E-03
DMP:  21    -0.193234698757E+04   -0.63361E-04   -0.61478E-04   648   0.140E-03 0.323E-03
DMP:  22    -0.193234703322E+04   -0.45648E-04   -0.46703E-04   648   0.104E-03 0.249E-03
DMP:  23    -0.193234706716E+04   -0.33940E-04   -0.38744E-04   648   0.904E-04 0.199E-03
DMP:  24    -0.193234709522E+04   -0.28059E-04   -0.35248E-04   648   0.862E-04 0.173E-03
DMP:  25    -0.193234712096E+04   -0.25742E-04   -0.33864E-04   648   0.848E-04 0.163E-03
DMP:  26    -0.193234714586E+04   -0.24899E-04   -0.33017E-04   648   0.830E-04 0.158E-03
DMP:  27    -0.193234717013E+04   -0.24277E-04   -0.31709E-04   648   0.786E-04 0.154E-03
DMP:  28    -0.193234719329E+04   -0.23155E-04   -0.29686E-04   648   0.720E-04 0.147E-03
DMP:  29    -0.193234721472E+04   -0.21426E-04   -0.27501E-04   648   0.661E-04 0.137E-03
DMP:  30    -0.193234723431E+04   -0.19598E-04   -0.25532E-04   648   0.619E-04 0.127E-03
DMP:  31    -0.193234725228E+04   -0.17969E-04   -0.23753E-04   648   0.582E-04 0.117E-03
DMP:  32    -0.193234726877E+04   -0.16484E-04   -0.21844E-04   648   0.535E-04 0.107E-03
DMP:  33    -0.193234728363E+04   -0.14861E-04   -0.19632E-04   648   0.477E-04 0.972E-04
DMP:  34    -0.193234729661E+04   -0.12986E-04   -0.17096E-04   648   0.408E-04 0.859E-04
DMP:  35    -0.193234730751E+04   -0.10894E-04   -0.14239E-04   648   0.332E-04 0.731E-04
DMP:  36    -0.193234731617E+04   -0.86587E-05   -0.11216E-04   648   0.254E-04 0.591E-04
DMP:  37    -0.193234732261E+04   -0.64420E-05   -0.83195E-05   648   0.181E-04 0.451E-04
   3 F= -.19323473E+04 E0= -.19323473E+04  d E =-.117867E+00  mag=     2.0000
       N       E                     dE             d eps       ncg     rms          ort
SDA:   1    -0.193234198006E+04    0.53361E-02   -0.29925E-02   648   0.150E-01 0.000E+00
DMP:   2    -0.193234463772E+04   -0.26577E-02   -0.29558E-02   648   0.874E-02 0.116E-01
DMP:   3    -0.193234707539E+04   -0.24377E-02   -0.17716E-02   648   0.387E-02 0.961E-02
DMP:   4    -0.193234845273E+04   -0.13773E-02   -0.83461E-03   648   0.161E-02 0.493E-02
DMP:   5    -0.193234907139E+04   -0.61866E-03   -0.36362E-03   648   0.765E-03 0.203E-02
DMP:   6    -0.193234933464E+04   -0.26324E-03   -0.16988E-03   648   0.422E-03 0.823E-03
DMP:   7    -0.193234945556E+04   -0.12093E-03   -0.79905E-04   648   0.210E-03 0.365E-03
DMP:   8    -0.193234950910E+04   -0.53535E-04   -0.31976E-04   648   0.877E-04 0.139E-03
DMP:   9    -0.193234952861E+04   -0.19511E-04   -0.12776E-04   648   0.446E-04 0.372E-04
DMP:  10    -0.193234953674E+04   -0.81297E-05   -0.82814E-05   648   0.317E-04 0.187E-04
   4 F= -.19323495E+04 E0= -.19323495E+04  d E =-.120081E+00  mag=     2.0000
       N       E                     dE             d eps       ncg     rms          ort
SDA:   1    -0.192730397723E+04    0.50456E+01   -0.19827E+01   648   0.991E+01 0.000E+00
DMP:   2    -0.192905037328E+04   -0.17464E+01   -0.19851E+01   648   0.601E+01 0.754E+01
DMP:   3    -0.193064835779E+04   -0.15980E+01   -0.11247E+01   648   0.249E+01 0.603E+01
DMP:   4    -0.193148013980E+04   -0.83178E+00   -0.44623E+00   648   0.841E+00 0.268E+01
DMP:   5    -0.193178258419E+04   -0.30244E+00   -0.15187E+00   648   0.354E+00 0.781E+00
DMP:   6    -0.193187845040E+04   -0.95866E-01   -0.60070E-01   648   0.200E+00 0.193E+00
DMP:   7    -0.193191513953E+04   -0.36689E-01   -0.27614E-01   648   0.105E+00 0.627E-01
DMP:   8    -0.193193110299E+04   -0.15963E-01   -0.12385E-01   648   0.519E-01 0.193E-01
DMP:   9    -0.193193816519E+04   -0.70622E-02   -0.72595E-02   648   0.325E-01 0.728E-02
DMP:  10    -0.193194331426E+04   -0.51491E-02   -0.61856E-02   648   0.235E-01 0.144E-01
DMP:  11    -0.193194835315E+04   -0.50389E-02   -0.48363E-02   648   0.143E-01 0.190E-01
DMP:  12    -0.193195228490E+04   -0.39317E-02   -0.29000E-02   648   0.678E-02 0.149E-01
DMP:  13    -0.193195454043E+04   -0.22555E-02   -0.13379E-02   648   0.260E-02 0.786E-02
DMP:  14    -0.193195552387E+04   -0.98343E-03   -0.51067E-03   648   0.987E-03 0.302E-02
DMP:  15    -0.193195588121E+04   -0.35735E-03   -0.20035E-03   648   0.512E-03 0.944E-03
DMP:  16    -0.193195602304E+04   -0.14183E-03   -0.10952E-03   648   0.350E-03 0.381E-03
DMP:  17    -0.193195610682E+04   -0.83779E-04   -0.77783E-04   648   0.242E-03 0.283E-03
DMP:  18    -0.193195616847E+04   -0.61648E-04   -0.55883E-04   648   0.155E-03 0.239E-03
DMP:  19    -0.193195621251E+04   -0.44048E-04   -0.38827E-04   648   0.988E-04 0.184E-03
DMP:  20    -0.193195624283E+04   -0.30314E-04   -0.27813E-04   648   0.681E-04 0.137E-03
DMP:  21    -0.193195626448E+04   -0.21648E-04   -0.21057E-04   648   0.502E-04 0.106E-03
DMP:  22    -0.193195628080E+04   -0.16324E-04   -0.16669E-04   648   0.390E-04 0.854E-04
DMP:  23    -0.193195629362E+04   -0.12823E-04   -0.13570E-04   648   0.313E-04 0.704E-04
DMP:  24    -0.193195630396E+04   -0.10341E-04   -0.11404E-04   648   0.263E-04 0.590E-04
DMP:  25    -0.193195631258E+04   -0.86154E-05   -0.99303E-05   648   0.232E-04 0.509E-04
   5 F= -.19319563E+04 E0= -.19319563E+04  d E =0.393224E+00  mag=     2.0000
       N       E                     dE             d eps       ncg     rms          ort
SDA:   1    -0.192964047758E+04    0.23158E+01   -0.11377E+01   648   0.569E+01 0.000E+00
DMP:   2    -0.193064655018E+04   -0.10061E+01   -0.11500E+01   648   0.348E+01 0.437E+01
DMP:   3    -0.193157878399E+04   -0.93223E+00   -0.66815E+00   648   0.148E+01 0.358E+01
DMP:   4    -0.193207798879E+04   -0.49920E+00   -0.27459E+00   648   0.513E+00 0.166E+01
DMP:   5    -0.193226666878E+04   -0.18868E+00   -0.95406E-01   648   0.209E+00 0.515E+00
DMP:   6    -0.193232771022E+04   -0.61041E-01   -0.37039E-01   648   0.116E+00 0.134E+00
DMP:   7    -0.193235044427E+04   -0.22734E-01   -0.16719E-01   648   0.616E-01 0.423E-01
DMP:   8    -0.193236009758E+04   -0.96533E-02   -0.74914E-02   648   0.307E-01 0.131E-01
DMP:   9    -0.193236428584E+04   -0.41883E-02   -0.41992E-02   648   0.186E-01 0.455E-02
DMP:  10    -0.193236712974E+04   -0.28439E-02   -0.34091E-02   648   0.131E-01 0.753E-02
DMP:  11    -0.193236983287E+04   -0.27031E-02   -0.26472E-02   648   0.802E-02 0.100E-01
DMP:  12    -0.193237195643E+04   -0.21236E-02   -0.16057E-02   648   0.386E-02 0.803E-02
DMP:  13    -0.193237319202E+04   -0.12356E-02   -0.75673E-03   648   0.152E-02 0.435E-02
DMP:  14    -0.193237373849E+04   -0.54648E-03   -0.29701E-03   648   0.603E-03 0.170E-02
DMP:  15    -0.193237393842E+04   -0.19993E-03   -0.11738E-03   648   0.314E-03 0.526E-03
DMP:  16    -0.193237401634E+04   -0.77921E-04   -0.62615E-04   648   0.209E-03 0.200E-03
DMP:  17    -0.193237406091E+04   -0.44564E-04   -0.40378E-04   648   0.130E-03 0.138E-03
DMP:  18    -0.193237409076E+04   -0.29858E-04   -0.24658E-04   648   0.708E-04 0.101E-03
DMP:  19    -0.193237410918E+04   -0.18413E-04   -0.14383E-04   648   0.383E-04 0.647E-04
DMP:  20    -0.193237412017E+04   -0.10989E-04   -0.88812E-05   648   0.228E-04 0.416E-04
DMP:  21    -0.193237412715E+04   -0.69832E-05   -0.58451E-05   648   0.142E-04 0.290E-04
   6 F= -.19323741E+04 E0= -.19323741E+04  d E =-.245904E-01  mag=     2.0000
       N       E                     dE             d eps       ncg     rms          ort
SDA:   1    -0.193189117998E+04    0.48294E+00   -0.19032E+00   648   0.952E+00 0.000E+00
DMP:   2    -0.193205937189E+04   -0.16819E+00   -0.19144E+00   648   0.578E+00 0.730E+00
DMP:   3    -0.193221462288E+04   -0.15525E+00   -0.11131E+00   648   0.247E+00 0.595E+00
DMP:   4    -0.193229805416E+04   -0.83431E-01   -0.46770E-01   648   0.894E-01 0.278E+00
DMP:   5    -0.193233045742E+04   -0.32403E-01   -0.17145E-01   648   0.387E-01 0.904E-01
DMP:   6    -0.193234158575E+04   -0.11128E-01   -0.69129E-02   648   0.212E-01 0.257E-01
DMP:   7    -0.193234581908E+04   -0.42333E-02   -0.29050E-02   648   0.104E-01 0.788E-02
DMP:   8    -0.193234740046E+04   -0.15814E-02   -0.11117E-02   648   0.486E-02 0.134E-02
DMP:   9    -0.193234797368E+04   -0.57322E-03   -0.67011E-03   648   0.325E-02 0.194E-03
DMP:  10    -0.193234844806E+04   -0.47438E-03   -0.61434E-03   648   0.234E-02 0.140E-02
DMP:  11    -0.193234894832E+04   -0.50026E-03   -0.47400E-03   648   0.136E-02 0.194E-02
DMP:  12    -0.193234933187E+04   -0.38356E-03   -0.28208E-03   648   0.646E-03 0.147E-02
DMP:  13    -0.193234955178E+04   -0.21991E-03   -0.13836E-03   648   0.279E-03 0.795E-03
DMP:  14    -0.193234965483E+04   -0.10305E-03   -0.60700E-04   648   0.125E-03 0.344E-03
DMP:  15    -0.193234969816E+04   -0.43323E-04   -0.26767E-04   648   0.640E-04 0.134E-03
DMP:  16    -0.193234971699E+04   -0.18835E-04   -0.13755E-04   648   0.385E-04 0.583E-04
DMP:  17    -0.193234972689E+04   -0.99019E-05   -0.82282E-05   648   0.237E-04 0.335E-04
   7 F= -.19323497E+04 E0= -.19323497E+04  d E =0.244003E-01  mag=     2.0000
       N       E                     dE             d eps       ncg     rms          ort
SDA:   1    -0.193218909765E+04    0.16062E+00   -0.81644E-01   648   0.408E+00 0.000E+00
DMP:   2    -0.193226102180E+04   -0.71924E-01   -0.82198E-01   648   0.249E+00 0.311E+00
DMP:   3    -0.193232710692E+04   -0.66085E-01   -0.46572E-01   648   0.103E+00 0.250E+00
DMP:   4    -0.193236145236E+04   -0.34345E-01   -0.18157E-01   648   0.333E-01 0.111E+00
DMP:   5    -0.193237373586E+04   -0.12284E-01   -0.59817E-02   648   0.132E-01 0.322E-01
DMP:   6    -0.193237751548E+04   -0.37796E-02   -0.23063E-02   648   0.739E-02 0.797E-02
DMP:   7    -0.193237895965E+04   -0.14442E-02   -0.11291E-02   648   0.411E-02 0.296E-02
DMP:   8    -0.193237967689E+04   -0.71724E-03   -0.60427E-03   648   0.222E-02 0.155E-02
DMP:   9    -0.193238007174E+04   -0.39485E-03   -0.37276E-03   648   0.138E-02 0.940E-03
DMP:  10    -0.193238033891E+04   -0.26717E-03   -0.27600E-03   648   0.957E-03 0.814E-03
DMP:  11    -0.193238055543E+04   -0.21652E-03   -0.20987E-03   648   0.640E-03 0.788E-03
DMP:  12    -0.193238072306E+04   -0.16763E-03   -0.13654E-03   648   0.356E-03 0.628E-03
DMP:  13    -0.193238082815E+04   -0.10509E-03   -0.69220E-04   648   0.154E-03 0.369E-03
DMP:  14    -0.193238087800E+04   -0.49848E-04   -0.27157E-04   648   0.560E-04 0.154E-03
DMP:  15    -0.193238089615E+04   -0.18154E-04   -0.10025E-04   648   0.257E-04 0.470E-04
DMP:  16    -0.193238090273E+04   -0.65739E-05   -0.50292E-05   648   0.164E-04 0.168E-04
   8 F= -.19323809E+04 E0= -.19323809E+04  d E =-.677558E-02  mag=     2.0000
       N       E                     dE             d eps       ncg     rms          ort
SDA:   1    -0.193237975123E+04    0.11449E-02   -0.49407E-03   648   0.247E-02 0.000E+00
DMP:   2    -0.193238018663E+04   -0.43540E-03   -0.50649E-03   648   0.155E-02 0.188E-02
DMP:   3    -0.193238059238E+04   -0.40574E-03   -0.28362E-03   648   0.625E-03 0.153E-02
DMP:   4    -0.193238079974E+04   -0.20736E-03   -0.10444E-03   648   0.181E-03 0.657E-03
DMP:   5    -0.193238086935E+04   -0.69618E-04   -0.32602E-04   648   0.719E-04 0.175E-03
DMP:   6    -0.193238088944E+04   -0.20089E-04   -0.12568E-04   648   0.426E-04 0.389E-04
DMP:   7    -0.193238089732E+04   -0.78796E-05   -0.68341E-05   648   0.255E-04 0.167E-04
   9 F= -.19323809E+04 E0= -.19323809E+04  d E =-.677017E-02  mag=     2.0000
       N       E                     dE             d eps       ncg     rms          ort
SDA:   1    -0.193237925211E+04    0.16373E-02   -0.54314E-03   648   0.272E-02 0.000E+00
DMP:   2    -0.193237972924E+04   -0.47714E-03   -0.55113E-03   648   0.169E-02 0.206E-02
DMP:   3    -0.193238016822E+04   -0.43897E-03   -0.30420E-03   648   0.672E-03 0.163E-02
DMP:   4    -0.193238038896E+04   -0.22074E-03   -0.11140E-03   648   0.200E-03 0.688E-03
DMP:   5    -0.193238046313E+04   -0.74168E-04   -0.36755E-04   648   0.871E-04 0.186E-03
DMP:   6    -0.193238048650E+04   -0.23367E-04   -0.15746E-04   648   0.522E-04 0.511E-04
DMP:   7    -0.193238049690E+04   -0.10400E-04   -0.86086E-05   648   0.295E-04 0.260E-04
DMP:   8    -0.193238050285E+04   -0.59521E-05   -0.50391E-05   648   0.164E-04 0.169E-04
  10 F= -.19323805E+04 E0= -.19323805E+04  d E =-.637570E-02  mag=     2.0000
       N       E                     dE             d eps       ncg     rms          ort
SDA:   1    -0.193238028281E+04    0.21409E-03   -0.19028E-03   648   0.951E-03 0.000E+00
DMP:   2    -0.193238045284E+04   -0.17003E-03   -0.19008E-03   648   0.561E-03 0.749E-03
DMP:   3    -0.193238061133E+04   -0.15849E-03   -0.11648E-03   648   0.253E-03 0.635E-03
DMP:   4    -0.193238070350E+04   -0.92174E-04   -0.56784E-04   648   0.107E-03 0.340E-03
DMP:   5    -0.193238074678E+04   -0.43273E-04   -0.25835E-04   648   0.518E-04 0.149E-03
DMP:   6    -0.193238076616E+04   -0.19385E-04   -0.12353E-04   648   0.281E-04 0.648E-04
DMP:   7    -0.193238077539E+04   -0.92246E-05   -0.60878E-05   648   0.146E-04 0.305E-04
  11 F= -.19323808E+04 E0= -.19323808E+04  d E =-.664824E-02  mag=     2.0000
       N       E                     dE             d eps       ncg     rms          ort
SDA:   1    -0.193238079457E+04   -0.28404E-04   -0.17930E-04   648   0.897E-04 0.000E+00
DMP:   2    -0.193238081079E+04   -0.16222E-04   -0.18360E-04   648   0.541E-04 0.726E-04
DMP:   3    -0.193238082653E+04   -0.15737E-04   -0.12097E-04   648   0.264E-04 0.656E-04
DMP:   4    -0.193238083660E+04   -0.10071E-04   -0.68409E-05   648   0.133E-04 0.402E-04
DMP:   5    -0.193238084222E+04   -0.56275E-05   -0.37492E-05   648   0.728E-05 0.221E-04
  12 F= -.19323808E+04 E0= -.19323808E+04  d E =-.671507E-02  mag=     2.0000
       N       E                     dE             d eps       ncg     rms          ort
SDA:   1    -0.193235554483E+04    0.25292E-01   -0.98197E-02   648   0.491E-01 0.000E+00
DMP:   2    -0.193236434969E+04   -0.88049E-02   -0.10484E-01   648   0.322E-01 0.390E-01
DMP:   3    -0.193237306950E+04   -0.87198E-02   -0.66884E-02   648   0.154E-01 0.348E-01
DMP:   4    -0.193237826870E+04   -0.51992E-02   -0.30951E-02   648   0.583E-02 0.186E-01
DMP:   5    -0.193238050734E+04   -0.22386E-02   -0.11332E-02   648   0.207E-02 0.693E-02
DMP:   6    -0.193238125527E+04   -0.74793E-03   -0.36164E-03   648   0.860E-03 0.183E-02
DMP:   7    -0.193238146352E+04   -0.20825E-03   -0.11951E-03   648   0.451E-03 0.283E-03
DMP:   8    -0.193238152456E+04   -0.61042E-04   -0.61389E-04   648   0.297E-03 0.182E-04
DMP:   9    -0.193238156348E+04   -0.38923E-04   -0.52296E-04   648   0.217E-03 0.856E-04
DMP:  10    -0.193238160442E+04   -0.40937E-04   -0.43680E-04   648   0.140E-03 0.150E-03
DMP:  11    -0.193238163975E+04   -0.35335E-04   -0.28959E-04   648   0.740E-04 0.136E-03
DMP:  12    -0.193238166265E+04   -0.22896E-04   -0.15486E-04   648   0.332E-04 0.851E-04
DMP:  13    -0.193238167453E+04   -0.11884E-04   -0.73090E-05   648   0.147E-04 0.421E-04
DMP:  14    -0.193238168008E+04   -0.55466E-05   -0.35493E-05   648   0.768E-05 0.194E-04
  13 F= -.19323817E+04 E0= -.19323817E+04  d E =-.837856E-03  mag=     2.0000
       N       E                     dE             d eps       ncg     rms          ort
SDA:   1    -0.193237915136E+04    0.25232E-02   -0.10940E-02   648   0.547E-02 0.000E+00
DMP:   2    -0.193238013311E+04   -0.98175E-03   -0.11598E-02   648   0.354E-02 0.435E-02
DMP:   3    -0.193238110090E+04   -0.96780E-03   -0.73389E-03   648   0.165E-02 0.388E-02
DMP:   4    -0.193238167774E+04   -0.57684E-03   -0.34125E-03   648   0.615E-03 0.210E-02
DMP:   5    -0.193238193211E+04   -0.25437E-03   -0.13234E-03   648   0.226E-03 0.839E-03
DMP:   6    -0.193238202602E+04   -0.93910E-04   -0.48964E-04   648   0.100E-03 0.279E-03
DMP:   7    -0.193238205958E+04   -0.33560E-04   -0.20496E-04   648   0.549E-04 0.915E-04
DMP:   8    -0.193238207380E+04   -0.14217E-04   -0.10899E-04   648   0.336E-04 0.402E-04
DMP:   9    -0.193238208184E+04   -0.80469E-05   -0.69353E-05   648   0.210E-04 0.263E-04
  14 F= -.19323821E+04 E0= -.19323821E+04  d E =-.123962E-02  mag=     2.0000
       N       E                     dE             d eps       ncg     rms          ort
SDA:   1    -0.193238123390E+04    0.83990E-03   -0.28792E-03   648   0.144E-02 0.000E+00
DMP:   2    -0.193238149224E+04   -0.25833E-03   -0.30297E-03   648   0.920E-03 0.114E-02
DMP:   3    -0.193238174541E+04   -0.25317E-03   -0.19118E-03   648   0.427E-03 0.102E-02
DMP:   4    -0.193238189679E+04   -0.15138E-03   -0.91046E-04   648   0.165E-03 0.559E-03
DMP:   5    -0.193238196628E+04   -0.69492E-04   -0.38702E-04   648   0.686E-04 0.240E-03
DMP:   6    -0.193238199538E+04   -0.29103E-04   -0.17159E-04   648   0.349E-04 0.980E-04
DMP:   7    -0.193238200845E+04   -0.13065E-04   -0.87036E-05   648   0.200E-04 0.452E-04
DMP:   8    -0.193238201526E+04   -0.68172E-05   -0.49668E-05   648   0.119E-04 0.249E-04
  15 F= -.19323820E+04 E0= -.19323820E+04  d E =-.117304E-02  mag=     2.0000
       N       E                     dE             d eps       ncg     rms          ort
SDA:   1    -0.193238201627E+04   -0.78266E-05   -0.14107E-04   648   0.705E-04 0.000E+00
DMP:   2    -0.193238202894E+04   -0.12663E-04   -0.14767E-04   648   0.447E-04 0.561E-04
DMP:   3    -0.193238204126E+04   -0.12327E-04   -0.93225E-05   648   0.209E-04 0.494E-04
DMP:   4    -0.193238204859E+04   -0.73256E-05   -0.44169E-05   648   0.824E-05 0.266E-04
  16 F= -.19323820E+04 E0= -.19323820E+04  d E =-.120636E-02  mag=     2.0000
       N       E                     dE             d eps       ncg     rms          ort
SDA:   1    -0.193237786230E+04    0.41790E-02   -0.15272E-02   648   0.764E-02 0.000E+00
DMP:   2    -0.193237923295E+04   -0.13706E-02   -0.16410E-02   648   0.505E-02 0.607E-02
DMP:   3    -0.193238059769E+04   -0.13647E-02   -0.10396E-02   648   0.237E-02 0.544E-02
DMP:   4    -0.193238140414E+04   -0.80645E-03   -0.46585E-03   648   0.840E-03 0.287E-02
DMP:   5    -0.193238173966E+04   -0.33552E-03   -0.16199E-03   648   0.276E-03 0.103E-02
DMP:   6    -0.193238184590E+04   -0.10624E-03   -0.50070E-04   648   0.119E-03 0.254E-03
DMP:   7    -0.193238187517E+04   -0.29265E-04   -0.18595E-04   648   0.705E-04 0.433E-04
DMP:   8    -0.193238188590E+04   -0.10731E-04   -0.11185E-04   648   0.481E-04 0.150E-04
DMP:   9    -0.193238189363E+04   -0.77365E-05   -0.90285E-05   648   0.338E-04 0.218E-04
  17 F= -.19323819E+04 E0= -.19323819E+04  d E =0.154955E-03  mag=     2.0000
       N       E                     dE             d eps       ncg     rms          ort
SDA:   1    -0.193238143163E+04    0.45427E-03   -0.23410E-03   648   0.117E-02 0.000E+00
DMP:   2    -0.193238164334E+04   -0.21171E-03   -0.25250E-03   648   0.771E-03 0.947E-03
DMP:   3    -0.193238185683E+04   -0.21349E-03   -0.16686E-03   648   0.381E-03 0.873E-03
DMP:   4    -0.193238198984E+04   -0.13301E-03   -0.81534E-04   648   0.150E-03 0.496E-03
DMP:   5    -0.193238205111E+04   -0.61271E-04   -0.31999E-04   648   0.534E-04 0.205E-03
DMP:   6    -0.193238207372E+04   -0.22609E-04   -0.11370E-04   648   0.224E-04 0.663E-04
DMP:   7    -0.193238208133E+04   -0.76128E-05   -0.44692E-05   648   0.123E-04 0.194E-04
  18 F= -.19323821E+04 E0= -.19323821E+04  d E =-.327398E-04  mag=     2.0000
       N       E                     dE             d eps       ncg     rms          ort
SDA:   1    -0.193238195270E+04    0.12102E-03   -0.57321E-04   648   0.287E-03 0.000E+00
DMP:   2    -0.193238200473E+04   -0.52030E-04   -0.61591E-04   648   0.186E-03 0.234E-03
DMP:   3    -0.193238205737E+04   -0.52640E-04   -0.41639E-04   648   0.946E-04 0.219E-03
DMP:   4    -0.193238209140E+04   -0.34030E-04   -0.22058E-04   648   0.416E-04 0.132E-03
DMP:   5    -0.193238210888E+04   -0.17485E-04   -0.10444E-04   648   0.186E-04 0.647E-04
DMP:   6    -0.193238211704E+04   -0.81579E-05   -0.49137E-05   648   0.927E-05 0.294E-04
  19 F= -.19323821E+04 E0= -.19323821E+04  d E =-.684501E-04  mag=     2.0000
       N       E                     dE             d eps       ncg     rms          ort
SDA:   1    -0.193238209444E+04    0.14438E-04   -0.93579E-05   648   0.468E-04 0.000E+00
DMP:   2    -0.193238210277E+04   -0.83251E-05   -0.94467E-05   648   0.283E-04 0.364E-04
  20 F= -.19323821E+04 E0= -.19323821E+04  d E =-.541793E-04  mag=     2.0000
       N       E                     dE             d eps       ncg     rms          ort
SDA:   1    -0.193238212106E+04   -0.26618E-04   -0.73006E-06   648   0.365E-05 0.000E+00
DMP:   2    -0.193238212173E+04   -0.66991E-06   -0.79950E-06   648   0.239E-05 0.308E-05
  21 F= -.19323821E+04 E0= -.19323821E+04  d E =-.731424E-04  mag=     2.0000
       N       E                     dE             d eps       ncg     rms          ort
SDA:   1    -0.193238211926E+04    0.18038E-05   -0.65907E-06   648   0.330E-05 0.000E+00
DMP:   2    -0.193238211986E+04   -0.60029E-06   -0.71169E-06   648   0.215E-05 0.271E-05
  22 F= -.19323821E+04 E0= -.19323821E+04  d E =-.712689E-04  mag=     2.0000
       N       E                     dE             d eps       ncg     rms          ort
SDA:   1    -0.193238212176E+04   -0.25074E-05   -0.11542E-06   648   0.577E-06 0.000E+00
DMP:   2    -0.193238212187E+04   -0.10769E-06   -0.13851E-06   648   0.426E-06 0.512E-06
  23 F= -.19323821E+04 E0= -.19323821E+04  d E =-.732838E-04  mag=     2.0000
       N       E                     dE             d eps       ncg     rms          ort
SDA:   1    -0.193238212176E+04    0.84328E-08   -0.75025E-07   648   0.375E-06 0.000E+00
DMP:   2    -0.193238212183E+04   -0.70235E-07   -0.91741E-07   648   0.285E-06 0.335E-06
  24 F= -.19323821E+04 E0= -.19323821E+04  d E =-.732379E-04  mag=     2.0000
       N       E                     dE             d eps       ncg     rms          ort
SDA:   1    -0.193238212176E+04   -0.13861E-08   -0.51092E-07   648   0.255E-06 0.000E+00
DMP:   2    -0.193238212181E+04   -0.47752E-07   -0.63249E-07   648   0.198E-06 0.228E-06
  25 F= -.19323821E+04 E0= -.19323821E+04  d E =-.732168E-04  mag=     2.0000
       N       E                     dE             d eps       ncg     rms          ort
SDA:   1    -0.193238173288E+04    0.38887E-03   -0.92586E-04   648   0.463E-03 0.000E+00
DMP:   2    -0.193238181593E+04   -0.83046E-04   -0.97201E-04   648   0.295E-03 0.368E-03
DMP:   3    -0.193238189695E+04   -0.81015E-04   -0.60803E-04   648   0.136E-03 0.324E-03
DMP:   4    -0.193238194462E+04   -0.47676E-04   -0.28048E-04   648   0.504E-04 0.173E-03
DMP:   5    -0.193238196554E+04   -0.20918E-04   -0.11179E-04   648   0.200E-04 0.691E-04
DMP:   6    -0.193238197364E+04   -0.80996E-05   -0.47033E-05   648   0.104E-04 0.252E-04
  26 F= -.19323820E+04 E0= -.19323820E+04  d E =0.148165E-03  mag=     2.0000
       N       E                     dE             d eps       ncg     rms          ort
SDA:   1    -0.193238199064E+04   -0.25100E-04   -0.30538E-04   648   0.153E-03 0.000E+00
DMP:   2    -0.193238201779E+04   -0.27154E-04   -0.30912E-04   648   0.928E-04 0.119E-03
DMP:   3    -0.193238204314E+04   -0.25347E-04   -0.18273E-04   648   0.400E-04 0.989E-04
DMP:   4    -0.193238205708E+04   -0.13938E-04   -0.78172E-05   648   0.141E-04 0.480E-04
DMP:   5    -0.193238206269E+04   -0.56157E-05   -0.30030E-05   648   0.612E-05 0.171E-04
  27 F= -.19323821E+04 E0= -.19323821E+04  d E =0.591113E-04  mag=     2.0000
