       N       E                     dE             d eps       ncg     rms          rms(c)
DAV:   1     0.260187927437E+04    0.26019E+04   -0.45182E+05  2592   0.131E+03
DAV:   2    -0.168439703416E+04   -0.42863E+04   -0.40479E+04  3112   0.271E+02
DAV:   3    -0.191146938945E+04   -0.22707E+03   -0.22456E+03  3360   0.563E+01
DAV:   4    -0.191525358294E+04   -0.37842E+01   -0.37649E+01  3328   0.726E+00
DAV:   5    -0.191533816046E+04   -0.84578E-01   -0.84447E-01  3360   0.106E+00    0.867E+01
DAV:   6    -0.189889389636E+04    0.16444E+02   -0.90382E+01  2976   0.108E+01    0.466E+01
DAV:   7    -0.192927312974E+04   -0.30379E+02   -0.59502E+01  2952   0.858E+00    0.201E+01
DAV:   8    -0.193418825394E+04   -0.49151E+01   -0.94204E+00  3088   0.384E+00    0.380E+00
DAV:   9    -0.193432813869E+04   -0.13988E+00   -0.45366E-01  3144   0.113E+00    0.196E+00
DAV:  10    -0.193431499529E+04    0.13143E-01   -0.17782E-01  3104   0.556E-01    0.547E-01
DAV:  11    -0.193431079803E+04    0.41973E-02   -0.17042E-02  3160   0.182E-01    0.169E-01
DAV:  12    -0.193431166562E+04   -0.86759E-03   -0.11530E-03  3320   0.642E-02    0.819E-02
DAV:  13    -0.193431211856E+04   -0.45295E-03   -0.70092E-04  3208   0.435E-02    0.368E-02
DAV:  14    -0.193431221106E+04   -0.92501E-04   -0.15132E-04  3200   0.183E-02    0.191E-02
DAV:  15    -0.193431223262E+04   -0.21561E-04   -0.28546E-05  2480   0.849E-03    0.660E-03
DAV:  16    -0.193431223537E+04   -0.27455E-05   -0.55812E-06  1632   0.350E-03
   1 F= -.19343122E+04 E0= -.19343122E+04  d E =0.000000E+00  mag=     2.0006
