 vasp.5.4.4.18Apr17-6-g9f103f2a35 (build May 07 2022 11:18:47) complex          
  
 executed on             LinuxIFC date 2026.05.15  05:33:23
 running on   48 total cores
 distrk:  each k-point on   48 cores,    1 groups
 distr:  one band on NCORES_PER_BAND=  24 cores,    2 groups


--------------------------------------------------------------------------------------------------------


 INCAR:
 POTCAR:   PAW_PBE N 08Apr2002                    
 POTCAR:   PAW_PBE C 08Apr2002                    

 ----------------------------------------------------------------------------- 
|                                                                             |
|           W    W    AA    RRRRR   N    N  II  N    N   GGGG   !!!           |
|           W    W   A  A   R    R  NN   N  II  NN   N  G    G  !!!           |
|           W    W  A    A  R    R  N N  N  II  N N  N  G       !!!           |
|           W WW W  AAAAAA  RRRRR   N  N N  II  N  N N  G  GGG   !            |
|           WW  WW  A    A  R   R   N   NN  II  N   NN  G    G                |
|           W    W  A    A  R    R  N    N  II  N    N   GGGG   !!!           |
|                                                                             |
|      For optimal performance we recommend to set                            |
|        NCORE= 4 - approx SQRT( number of cores)                             |
|      NCORE specifies how many cores store one orbital (NPAR=cpu/NCORE).     |
|      This setting can  greatly improve the performance of VASP for DFT.     |
|      The default,   NCORE=1            might be grossly inefficient         |
|      on modern multi-core architectures or massively parallel machines.     |
|      Do your own testing !!!!                                               |
|      Unfortunately you need to use the default for GW and RPA calculations. |
|      (for HF NCORE is supported but not extensively tested yet)             |
|                                                                             |
 ----------------------------------------------------------------------------- 

 POTCAR:   PAW_PBE N 08Apr2002                    
   VRHFIN =N: s2p3                                                              
   LEXCH  = PE                                                                  
   EATOM  =   264.5486 eV,   19.4438 Ry                                         
                                                                                
   TITEL  = PAW_PBE N 08Apr2002                                                 
   LULTRA =        F    use ultrasoft PP ?                                      
   IUNSCR =        0    unscreen: 0-lin 1-nonlin 2-no                           
   RPACOR =     .000    partial core radius                                     
   POMASS =   14.001; ZVAL   =    5.000    mass and valenz                      
   RCORE  =    1.500    outmost cutoff radius                                   
   RWIGS  =    1.400; RWIGS  =     .741    wigner-seitz radius (au A)           
   ENMAX  =  400.000; ENMIN  =  300.000 eV                                      
   ICORE  =        2    local potential                                         
   LCOR   =        T    correct aug charges                                     
   LPAW   =        T    paw PP                                                  
   EAUG   =  627.112                                                            
   DEXC   =     .000                                                            
   RMAX   =    2.247    core radius for proj-oper                               
   RAUG   =    1.300    factor for augmentation sphere                          
   RDEP   =    1.514    radius for radial grids                                 
   QCUT   =   -5.562; QGAM   =   11.124    optimization parameters              
                                                                                
   Description                                                                  
     l     E      TYP  RCUT    TYP  RCUT                                        
     0   .000     23  1.200                                                     
     0   .000     23  1.200                                                     
     1   .000     23  1.500                                                     
     1   .700     23  1.500                                                     
     2   .000      7  1.500                                                     
  local pseudopotential read in
  atomic valenz-charges read in
  non local Contribution for L=           0  read in
    real space projection operators read in
  non local Contribution for L=           0  read in
    real space projection operators read in
  non local Contribution for L=           1  read in
    real space projection operators read in
  non local Contribution for L=           1  read in
    real space projection operators read in
    PAW grid and wavefunctions read in
 
   number of l-projection  operators is LMAX  =           4
   number of lm-projection operators is LMMAX =           8
 
 POTCAR:   PAW_PBE C 08Apr2002                    
   VRHFIN =C: s2p2                                                              
   LEXCH  = PE                                                                  
   EATOM  =   147.1560 eV,   10.8157 Ry                                         
                                                                                
   TITEL  = PAW_PBE C 08Apr2002                                                 
   LULTRA =        F    use ultrasoft PP ?                                      
   IUNSCR =        0    unscreen: 0-lin 1-nonlin 2-no                           
   RPACOR =     .000    partial core radius                                     
   POMASS =   12.011; ZVAL   =    4.000    mass and valenz                      
   RCORE  =    1.500    outmost cutoff radius                                   
   RWIGS  =    1.630; RWIGS  =     .863    wigner-seitz radius (au A)           
   ENMAX  =  400.000; ENMIN  =  300.000 eV                                      
   ICORE  =        2    local potential                                         
   LCOR   =        T    correct aug charges                                     
   LPAW   =        T    paw PP                                                  
   EAUG   =  644.873                                                            
   DEXC   =     .000                                                            
   RMAX   =    2.266    core radius for proj-oper                               
   RAUG   =    1.300    factor for augmentation sphere                          
   RDEP   =    1.501    radius for radial grids                                 
   RDEPT  =    1.300    core radius for aug-charge                              
   QCUT   =   -5.516; QGAM   =   11.032    optimization parameters              
                                                                                
   Description                                                                  
     l     E      TYP  RCUT    TYP  RCUT                                        
     0   .000     23  1.200                                                     
     0   .000     23  1.200                                                     
     1   .000     23  1.500                                                     
     1  2.500     23  1.500                                                     
     2   .000      7  1.500                                                     
  local pseudopotential read in
  atomic valenz-charges read in
  non local Contribution for L=           0  read in
    real space projection operators read in
  non local Contribution for L=           0  read in
    real space projection operators read in
  non local Contribution for L=           1  read in
    real space projection operators read in
  non local Contribution for L=           1  read in
    real space projection operators read in
    PAW grid and wavefunctions read in
 
   number of l-projection  operators is LMAX  =           4
   number of lm-projection operators is LMMAX =           8
 
 Optimization of the real space projectors (new method)

 maximal supplied QI-value         = 25.13
 optimisation between [QCUT,QGAM] = [ 11.56, 23.12] = [ 37.43,149.72] Ry 
 Optimized for a Real-space Cutoff    1.25 Angstroem

   l    n(q)    QCUT    max X(q) W(low)/X(q) W(high)/X(q)  e(spline) 
   0      9    11.561     4.511    0.30E-04    0.28E-04    0.49E-07
   0      9    11.561    37.799    0.51E-04    0.16E-03    0.37E-06
   1      8    11.561     2.478    0.16E-04    0.39E-04    0.64E-07
   1      8    11.561    11.620    0.47E-03    0.29E-03    0.82E-06
 Optimization of the real space projectors (new method)

 maximal supplied QI-value         = 25.13
 optimisation between [QCUT,QGAM] = [ 11.56, 23.12] = [ 37.43,149.72] Ry 
 Optimized for a Real-space Cutoff    1.01 Angstroem

   l    n(q)    QCUT    max X(q) W(low)/X(q) W(high)/X(q)  e(spline) 
   0      7    11.561     5.582    0.37E-04    0.15E-03    0.14E-07
   0      7    11.561    69.432    0.33E-03    0.93E-03    0.20E-06
   1      6    11.561     2.780    0.26E-04    0.68E-04    0.38E-07
   1      6    11.561     4.549    0.40E-03    0.28E-03    0.11E-06
 PAW_PBE N 08Apr2002                    :
 energy of atom  1       EATOM= -264.5486
 kinetic energy error for atom=    0.0125 (will be added to EATOM!!)
 PAW_PBE C 08Apr2002                    :
 energy of atom  2       EATOM= -147.1560
 kinetic energy error for atom=    0.0071 (will be added to EATOM!!)
 
 
 POSCAR: x3                                      
  positions in direct lattice
  velocities in cartesian coordinates
 exchange correlation table for  LEXCH =        8
   RHO(1)=    0.500       N(1)  =     2000
   RHO(2)=  100.500       N(2)  =     4000
 


--------------------------------------------------------------------------------------------------------


 ion  position               nearest neighbor table
   1  0.550  0.384  0.550-   7 1.47  64 1.47 104 1.47
   2  0.958  0.792  0.125- 136 1.54 133 1.54  16 1.54  63 1.54
   3  0.375  0.542  0.875-  42 1.54   9 1.54  40 1.54  27 1.54
   4  0.292  0.125  0.791- 171 1.54 126 1.54  31 1.54 158 1.54
   5  0.293  0.624  0.625- 204 1.54   6 1.54 198 1.55  47 1.55
   6  0.375  0.708  0.708- 172 1.54   9 1.54 168 1.54   5 1.54
   7  0.462  0.458  0.625-   1 1.47   8 1.54  47 1.55  33 1.55
   8  0.543  0.543  0.710-   9 1.53   7 1.54  74 1.54  72 1.54
   9  0.459  0.626  0.792-   8 1.53  10 1.54   6 1.54   3 1.54
  10  0.542  0.709  0.875- 211 1.54   9 1.54  28 1.54  58 1.54
  11  0.625  0.792  0.125-  59 1.54  12 1.54  45 1.55 212 1.55
  12  0.708  0.875  0.209-  11 1.54  21 1.54  23 1.54  17 1.54
  13  0.625  0.959  0.958-  53 1.54  14 1.54 175 1.55 212 1.55
  14  0.708  0.042  0.042-  13 1.54  86 1.54  90 1.54  17 1.54
  15  0.792  0.792  0.959-  16 1.54 215 1.54  59 1.54  53 1.54
  16  0.875  0.875  0.042-  15 1.54  17 1.54 137 1.54   2 1.54
  17  0.791  0.958  0.125-  18 1.54  16 1.54  12 1.54  14 1.54
  18  0.874  0.042  0.208-  17 1.54 135 1.54 145 1.54  98 1.54
  19  0.625  0.792  0.458-  29 1.54  67 1.54  20 1.54 165 1.54
  20  0.708  0.876  0.542-  25 1.54  19 1.54  79 1.54  82 1.54
  21  0.625  0.959  0.292- 165 1.54 189 1.54  12 1.54  22 1.54
  22  0.708  0.042  0.376-  25 1.53  98 1.54  21 1.54  94 1.55
  23  0.791  0.792  0.292-  63 1.54  24 1.54  67 1.54  12 1.54
  24  0.875  0.875  0.375-  25 1.54 143 1.54 145 1.54  23 1.54
  25  0.791  0.958  0.458-  22 1.53  24 1.54  20 1.54  26 1.54
  26  0.874  0.042  0.541- 113 1.54  25 1.54 153 1.55 105 1.55
  27  0.293  0.458  0.791- 204 1.54   3 1.54 128 1.55  33 1.55
  28  0.625  0.792  0.792-  53 1.54  75 1.54  10 1.54 173 1.54
  29  0.542  0.709  0.542- 172 1.54  19 1.54  74 1.54  51 1.55
  30  0.541  0.540  0.377-  51 1.53  50 1.55  64 1.55  66 1.55
  31  0.375  0.208  0.875- 178 1.54 180 1.54   4 1.54  36 1.54
  32  0.293  0.290  0.624- 185 1.48 120 1.54  33 1.55 126 1.55
  33  0.376  0.374  0.707-  36 1.53  32 1.55   7 1.55  27 1.55
  34  0.457  0.126  0.623- 185 1.49 167 1.54  35 1.55 171 1.56
  35  0.541  0.210  0.707-  36 1.53  34 1.55 104 1.55 102 1.55
  36  0.459  0.292  0.791-  35 1.53  33 1.53  31 1.54  37 1.55
  37  0.542  0.375  0.875-  42 1.54  88 1.54  72 1.54  36 1.55
  38  0.292  0.458  0.125- 179 1.54 161 1.54 112 1.54  39 1.55
  39  0.375  0.542  0.208-  44 1.54  48 1.54  38 1.55  50 1.56
  40  0.292  0.625  0.958- 206 1.54 161 1.54  41 1.54   3 1.54
  41  0.375  0.708  0.042- 211 1.54  44 1.54 207 1.54  40 1.54
  42  0.458  0.458  0.959-  37 1.54   3 1.54  43 1.54 179 1.54
  43  0.542  0.541  0.042-  44 1.54  42 1.54  58 1.54  56 1.54
  44  0.458  0.625  0.125-  39 1.54  43 1.54  41 1.54  45 1.54
  45  0.541  0.708  0.209- 164 1.54  44 1.54  11 1.55  66 1.55
  46  0.292  0.457  0.458- 107 1.49 120 1.54  47 1.55 196 1.56
  47  0.377  0.540  0.541-  51 1.53  46 1.55   7 1.55   5 1.55
  48  0.292  0.625  0.292-  49 1.54  39 1.54 196 1.54 190 1.54
  49  0.375  0.708  0.375- 188 1.54 164 1.54  48 1.54  51 1.54
  50  0.458  0.456  0.293- 107 1.50 183 1.54  30 1.55  39 1.56
  51  0.459  0.625  0.459-  30 1.53  47 1.53  49 1.54  29 1.55
  52  0.548  0.203  0.368-  96 1.47  94 1.48 106 1.49
  53  0.708  0.876  0.875-  28 1.54  13 1.54  84 1.54  15 1.54
  54  0.708  0.042  0.708- 105 1.54 102 1.54  79 1.54  84 1.55
  55  0.875  0.375  0.875- 134 1.54  78 1.54  60 1.54 199 1.54
  56  0.625  0.458  0.126-  57 1.54  89 1.54  43 1.54 183 1.55
  57  0.708  0.541  0.209-  68 1.54  66 1.54  56 1.54  62 1.55
  58  0.625  0.625  0.959-  59 1.54  73 1.54  10 1.54  43 1.54
  59  0.708  0.708  0.042-  58 1.54  11 1.54  62 1.54  15 1.54
  60  0.792  0.458  0.959-  61 1.54  73 1.54  55 1.54  89 1.54
  61  0.875  0.542  0.042-  60 1.54 129 1.54  62 1.54 131 1.54
  62  0.791  0.625  0.126-  63 1.54  61 1.54  59 1.54  57 1.55
  63  0.875  0.708  0.209-  62 1.54 193 1.54  23 1.54   2 1.54
  64  0.625  0.458  0.462-   1 1.47  65 1.54  97 1.55  30 1.55
  65  0.710  0.543  0.542-  70 1.54  64 1.54  74 1.54  76 1.54
  66  0.625  0.624  0.293-  57 1.54  67 1.54  45 1.55  30 1.55
  67  0.708  0.708  0.375-  19 1.54  70 1.54  23 1.54  66 1.54
  68  0.790  0.458  0.293-  57 1.54  69 1.55  93 1.55  97 1.55
  69  0.875  0.541  0.375- 191 1.54  70 1.54 193 1.54  68 1.55
  70  0.792  0.626  0.459-  65 1.54  71 1.54  67 1.54  69 1.54
  71  0.875  0.709  0.542- 143 1.54  70 1.54  82 1.54 202 1.54
  72  0.626  0.459  0.793-  73 1.54  37 1.54   8 1.54  81 1.54
  73  0.709  0.542  0.876-  72 1.54  58 1.54  60 1.54 201 1.54
  74  0.626  0.626  0.626-  75 1.54  29 1.54   8 1.54  65 1.54
  75  0.709  0.709  0.709-  74 1.54  28 1.54  82 1.54 201 1.54
  76  0.793  0.459  0.626-  77 1.54 101 1.54  81 1.54  65 1.54
  77  0.876  0.542  0.709-  76 1.54 202 1.54 199 1.54 201 1.54
  78  0.792  0.292  0.792-  81 1.54  55 1.54  80 1.54 103 1.54
  79  0.624  0.959  0.624-  54 1.54  20 1.54 173 1.54 167 1.55
  80  0.875  0.209  0.708- 123 1.54  78 1.54 121 1.54 105 1.55
  81  0.710  0.376  0.710-  78 1.54 104 1.54  76 1.54  72 1.54
  82  0.792  0.792  0.625-  83 1.54  75 1.54  71 1.54  20 1.54
  83  0.875  0.876  0.708-  82 1.54 153 1.54  84 1.54 151 1.54
  84  0.791  0.959  0.791-  85 1.54  83 1.54  53 1.54  54 1.55
  85  0.875  0.042  0.875-  84 1.54 121 1.54  90 1.54 137 1.54
  86  0.625  0.125  0.125- 181 1.54 189 1.54  14 1.54  87 1.54
  87  0.708  0.209  0.208-  92 1.53  98 1.54  96 1.54  86 1.54
  88  0.625  0.292  0.959-  37 1.54 103 1.54  89 1.54 181 1.54
  89  0.708  0.375  0.042-  92 1.54  88 1.54  56 1.54  60 1.54
  90  0.791  0.125  0.958-  85 1.54  91 1.54  14 1.54 103 1.54
  91  0.875  0.208  0.042-  92 1.54 134 1.54 135 1.54  90 1.54
  92  0.792  0.291  0.125-  87 1.53  91 1.54  89 1.54  93 1.54
  93  0.874  0.375  0.209- 115 1.54  92 1.54 129 1.55  68 1.55
  94  0.623  0.127  0.456-  52 1.48 167 1.54  95 1.55  22 1.55
  95  0.707  0.210  0.540- 100 1.53  94 1.55 104 1.55 105 1.55
  96  0.623  0.289  0.293-  52 1.47 183 1.54  87 1.54  97 1.55
  97  0.706  0.374  0.376- 100 1.53  96 1.55  64 1.55  68 1.55
  98  0.791  0.125  0.292-  22 1.54  87 1.54  99 1.54  18 1.54
  99  0.874  0.208  0.375- 113 1.54 115 1.54  98 1.54 100 1.54
 100  0.791  0.292  0.458-  95 1.53  97 1.53  99 1.54 101 1.55
 101  0.875  0.375  0.542- 191 1.54 123 1.54  76 1.54 100 1.55
 102  0.625  0.126  0.791-  54 1.54 103 1.54 175 1.55  35 1.55
 103  0.708  0.209  0.875-  88 1.54  78 1.54  90 1.54 102 1.54
 104  0.625  0.295  0.625-   1 1.47  81 1.54  95 1.55  35 1.55
 105  0.790  0.126  0.624-  54 1.54  80 1.55  26 1.55  95 1.55
 106  0.460  0.126  0.293-  52 1.49 163 1.54 177 1.54 189 1.55
 107  0.368  0.380  0.368-  46 1.49 108 1.50  50 1.50
 108  0.292  0.291  0.292- 107 1.50 177 1.54 118 1.54 112 1.56
 109  0.125  0.125  0.958- 110 1.54 158 1.54 122 1.54 138 1.54
 110  0.208  0.208  0.041- 109 1.54 111 1.54 178 1.54 176 1.54
 111  0.124  0.291  0.124- 112 1.54 132 1.54 110 1.54 159 1.54
 112  0.207  0.374  0.207- 111 1.54  38 1.54 195 1.54 108 1.56
 113  0.958  0.125  0.458-  26 1.54  99 1.54 114 1.54 146 1.54
 114  0.042  0.208  0.541- 125 1.54 119 1.54 113 1.54 123 1.54
 115  0.958  0.291  0.292-  93 1.54  99 1.54 116 1.54 159 1.54
 116  0.042  0.375  0.375- 195 1.54 119 1.54 115 1.54 191 1.54
 117  0.125  0.125  0.292- 118 1.54 146 1.54 142 1.54 159 1.54
 118  0.208  0.208  0.375- 119 1.54 108 1.54 117 1.54 184 1.54
 119  0.125  0.291  0.458- 118 1.54 120 1.54 114 1.54 116 1.54
 120  0.209  0.374  0.541-  46 1.54  32 1.54 119 1.54 203 1.54
 121  0.958  0.125  0.791-  85 1.54 154 1.54 122 1.54  80 1.54
 122  0.041  0.208  0.875- 127 1.54 134 1.54 109 1.54 121 1.54
 123  0.958  0.292  0.625- 101 1.54  80 1.54 124 1.54 114 1.54
 124  0.042  0.375  0.708- 127 1.54 123 1.54 203 1.54 199 1.54
 125  0.125  0.125  0.625- 114 1.54 154 1.54 150 1.54 126 1.55
 126  0.208  0.209  0.709- 127 1.53   4 1.54 125 1.55  32 1.55
 127  0.125  0.291  0.792- 126 1.53 122 1.54 124 1.54 128 1.54
 128  0.209  0.375  0.874- 178 1.54 127 1.54 160 1.55  27 1.55
 129  0.958  0.458  0.125-  61 1.54 130 1.54 132 1.55  93 1.55
 130  0.041  0.541  0.208- 129 1.54 195 1.54 193 1.54 162 1.54
 131  0.959  0.625  0.959- 133 1.54 215 1.54 200 1.54  61 1.54
 132  0.041  0.375  0.041- 111 1.54 134 1.54 129 1.55 160 1.55
 133  0.042  0.708  0.042- 131 1.54 162 1.54 139 1.54   2 1.54
 134  0.958  0.292  0.958-  55 1.54 132 1.54  91 1.54 122 1.54
 135  0.958  0.125  0.125- 159 1.54  91 1.54  18 1.54 138 1.54
 136  0.041  0.875  0.208-   2 1.54 141 1.54 147 1.54 145 1.54
 137  0.958  0.958  0.958- 138 1.54 152 1.54  16 1.54  85 1.54
 138  0.042  0.042  0.042- 137 1.54 141 1.54 109 1.54 135 1.54
 139  0.125  0.792  0.958- 140 1.54 133 1.54 152 1.54 206 1.54
 140  0.208  0.875  0.042- 139 1.54 141 1.54 207 1.54 209 1.54
 141  0.125  0.958  0.125- 142 1.54 140 1.54 136 1.54 138 1.54
 142  0.208  0.041  0.208- 141 1.54 186 1.54 176 1.54 117 1.54
 143  0.958  0.792  0.458- 144 1.54  71 1.54  24 1.54 194 1.54
 144  0.041  0.875  0.541- 149 1.54 143 1.54 153 1.55 155 1.55
 145  0.958  0.958  0.292- 146 1.54  24 1.54  18 1.54 136 1.54
 146  0.041  0.041  0.375- 145 1.54 149 1.54 117 1.54 113 1.54
 147  0.125  0.791  0.292- 148 1.54 190 1.54 194 1.54 136 1.54
 148  0.208  0.875  0.375- 147 1.54 149 1.54 188 1.54 186 1.54
 149  0.124  0.958  0.458- 150 1.53 144 1.54 148 1.54 146 1.54
 150  0.208  0.041  0.541- 149 1.53 170 1.54 125 1.54 184 1.55
 151  0.959  0.792  0.792- 152 1.54 215 1.54 214 1.54  83 1.54
 152  0.042  0.875  0.875- 151 1.54 157 1.54 137 1.54 139 1.54
 153  0.958  0.959  0.625-  83 1.54 154 1.54 144 1.55  26 1.55
 154  0.042  0.042  0.708- 153 1.54 125 1.54 121 1.54 157 1.54
 155  0.125  0.791  0.625- 214 1.54 156 1.54 198 1.55 144 1.55
 156  0.209  0.875  0.708- 155 1.54 170 1.54 168 1.54 157 1.54
 157  0.125  0.958  0.791- 158 1.54 152 1.54 156 1.54 154 1.54
 158  0.208  0.042  0.875- 157 1.54 109 1.54 209 1.54   4 1.54
 159  0.041  0.208  0.208- 135 1.54 111 1.54 117 1.54 115 1.54
 160  0.125  0.458  0.958- 200 1.54 161 1.54 128 1.55 132 1.55
 161  0.208  0.541  0.041- 160 1.54  38 1.54  40 1.54 162 1.54
 162  0.125  0.625  0.125- 190 1.54 133 1.54 161 1.54 130 1.54
 163  0.375  0.042  0.375- 166 1.54 184 1.54 106 1.54 186 1.54
 164  0.458  0.792  0.292-  45 1.54  49 1.54 165 1.54 208 1.54
 165  0.541  0.875  0.375-  21 1.54 166 1.54 164 1.54  19 1.54
 166  0.458  0.959  0.458- 163 1.54 167 1.54 165 1.54 187 1.54
 167  0.541  0.043  0.540- 166 1.54  34 1.54  94 1.54  79 1.55
 168  0.292  0.792  0.791- 206 1.54 156 1.54 169 1.54   6 1.54
 169  0.375  0.875  0.875- 174 1.54 211 1.54 209 1.54 168 1.54
 170  0.292  0.958  0.625- 187 1.54 156 1.54 150 1.54 171 1.54
 171  0.375  0.041  0.708- 174 1.54   4 1.54 170 1.54  34 1.56
 172  0.458  0.792  0.625-  29 1.54   6 1.54 173 1.54 187 1.54
 173  0.542  0.876  0.708- 174 1.54 172 1.54  28 1.54  79 1.54
 174  0.458  0.958  0.792- 171 1.54 173 1.54 169 1.54 175 1.54
 175  0.541  0.042  0.874- 180 1.54 174 1.54  13 1.55 102 1.55
 176  0.292  0.125  0.125- 177 1.54 210 1.54 142 1.54 110 1.54
 177  0.375  0.208  0.209- 182 1.54 108 1.54 106 1.54 176 1.54
 178  0.292  0.291  0.958- 128 1.54  31 1.54 179 1.54 110 1.54
 179  0.375  0.375  0.042-  38 1.54 178 1.54  42 1.54 182 1.54
 180  0.458  0.125  0.958- 175 1.54  31 1.54 181 1.54 210 1.54
 181  0.542  0.208  0.042-  86 1.54 182 1.54 180 1.54  88 1.54
 182  0.458  0.291  0.126- 177 1.54 183 1.54 181 1.54 179 1.54
 183  0.541  0.374  0.210-  50 1.54 182 1.54  96 1.54  56 1.55
 184  0.292  0.125  0.459- 185 1.49 163 1.54 118 1.54 150 1.55
 185  0.368  0.203  0.547-  32 1.48 184 1.49  34 1.49
 186  0.292  0.958  0.292- 142 1.54 208 1.54 163 1.54 148 1.54
 187  0.375  0.875  0.541- 170 1.54 188 1.54 172 1.54 166 1.54
 188  0.292  0.791  0.458- 198 1.54  49 1.54 187 1.54 148 1.54
 189  0.541  0.041  0.208- 213 1.53  21 1.54  86 1.54 106 1.55
 190  0.208  0.708  0.208- 162 1.54 147 1.54 207 1.54  48 1.54
 191  0.958  0.458  0.458- 101 1.54  69 1.54 192 1.54 116 1.54
 192  0.042  0.541  0.542- 197 1.54 191 1.54 202 1.54 203 1.54
 193  0.958  0.625  0.292-  63 1.54 130 1.54 194 1.54  69 1.54
 194  0.041  0.708  0.375- 143 1.54 197 1.54 147 1.54 193 1.54
 195  0.125  0.458  0.292- 116 1.54 130 1.54 112 1.54 196 1.55
 196  0.208  0.542  0.375- 197 1.54  48 1.54 195 1.55  46 1.56
 197  0.125  0.625  0.458- 196 1.54 192 1.54 194 1.54 198 1.54
 198  0.209  0.708  0.541- 188 1.54 197 1.54 155 1.55   5 1.55
 199  0.959  0.458  0.792- 200 1.54  77 1.54 124 1.54  55 1.54
 200  0.042  0.542  0.875- 199 1.54 160 1.54 205 1.54 131 1.54
 201  0.792  0.625  0.792- 215 1.54  77 1.54  75 1.54  73 1.54
 202  0.959  0.625  0.625- 214 1.54  77 1.54 192 1.54  71 1.54
 203  0.126  0.458  0.625- 204 1.54 124 1.54 192 1.54 120 1.54
 204  0.209  0.541  0.708-  27 1.54   5 1.54 203 1.54 205 1.55
 205  0.126  0.625  0.791- 206 1.54 214 1.54 200 1.54 204 1.55
 206  0.209  0.708  0.875- 205 1.54  40 1.54 168 1.54 139 1.54
 207  0.292  0.791  0.125- 208 1.54  41 1.54 190 1.54 140 1.54
 208  0.375  0.875  0.208- 207 1.54 213 1.54 186 1.54 164 1.54
 209  0.292  0.958  0.958- 210 1.54 169 1.54 158 1.54 140 1.54
 210  0.375  0.041  0.041- 209 1.54 213 1.54 176 1.54 180 1.54
 211  0.458  0.792  0.958- 212 1.54  10 1.54 169 1.54  41 1.54
 212  0.541  0.875  0.041- 213 1.54 211 1.54  13 1.55  11 1.55
 213  0.458  0.958  0.125- 189 1.53 212 1.54 208 1.54 210 1.54
 214  0.042  0.708  0.708- 202 1.54 155 1.54 205 1.54 151 1.54
 215  0.875  0.709  0.875- 201 1.54  15 1.54 151 1.54 131 1.54
 

IMPORTANT INFORMATION: All symmetrisations will be switched off!
NOSYMM: (Re-)initialisation of all symmetry stuff for point group C_1.

 
 
 KPOINTS: Num irrep kpoints: 1                    

Automatic generation of k-mesh.
Space group operators:
 irot       det(A)        alpha          n_x          n_y          n_z        tau_x        tau_y        tau_z
    1     1.000000     0.000001     1.000000     0.000000     0.000000     0.000000     0.000000     0.000000
 
 Subroutine IBZKPT returns following result:
 ===========================================
 
 Found      1 irreducible k-points:
 
 Following reciprocal coordinates:
            Coordinates               Weight
  0.000000  0.000000  0.000000      1.000000
 
 Following cartesian coordinates:
            Coordinates               Weight
  0.000000  0.000000  0.000000      1.000000
 


--------------------------------------------------------------------------------------------------------




 Dimension of arrays:
   k-points           NKPTS =      1   k-points in BZ     NKDIM =      1   number of bands    NBANDS=    648
   number of dos      NEDOS =    301   number of ions     NIONS =    215
   non local maximal  LDIM  =      4   non local SUM 2l+1 LMDIM =      8
   total plane-waves  NPLWV = 216000
   max r-space proj   IRMAX =   1489   max aug-charges    IRDMAX=   2380
   dimension x,y,z NGX =    60 NGY =   60 NGZ =   60
   dimension x,y,z NGXF=   120 NGYF=  120 NGZF=  120
   support grid    NGXF=   120 NGYF=  120 NGZF=  120
   ions per type =               1 214
   NGX,Y,Z   is equivalent  to a cutoff of   9.34,  9.34,  9.34 a.u.
   NGXF,Y,Z  is equivalent  to a cutoff of  18.68, 18.68, 18.68 a.u.

 SYSTEM =  unknown system                          
 POSCAR =  x3                                      

 Startparameter for this run:
   NWRITE =      2    write-flag & timer
   PREC   = normal    normal or accurate (medium, high low for compatibility)
   ISTART =      0    job   : 0-new  1-cont  2-samecut
   ICHARG =      2    charge: 1-file 2-atom 10-const
   ISPIN  =      2    spin polarized calculation?
   LNONCOLLINEAR =      F non collinear calculations
   LSORBIT =      F    spin-orbit coupling
   INIWAV =      1    electr: 0-lowe 1-rand  2-diag
   LASPH  =      T    aspherical Exc in radial PAW
   METAGGA=      F    non-selfconsistent MetaGGA calc.

 Electronic Relaxation 1
   ENCUT  =  520.0 eV  38.22 Ry    6.18 a.u.  19.86 19.86 19.86*2*pi/ulx,y,z
   ENINI  =  520.0     initial cutoff
   ENAUG  =  644.9 eV  augmentation charge cutoff
   NELM   =    100;   NELMIN=  2; NELMDL= -5     # of ELM steps 
   EDIFF  = 0.1E-04   stopping-criterion for ELM
   LREAL  =      T    real-space projection
   NLSPLINE    = F    spline interpolate recip. space projectors
   LCOMPAT=      F    compatible to vasp.4.4
   GGA_COMPAT  = T    GGA compatible to vasp.4.4-vasp.4.6
   LMAXPAW     = -100 max onsite density
   LMAXMIX     =    2 max onsite mixed and CHGCAR
   VOSKOWN=      0    Vosko Wilk Nusair interpolation
   ROPT   =   -0.00050  -0.00050
 Ionic relaxation
   EDIFFG = -.1E-01   stopping-criterion for IOM
   NSW    =      0    number of steps for IOM
   NBLOCK =      1;   KBLOCK =      1    inner block; outer block 
   IBRION =     -1    ionic relax: 0-MD 1-quasi-New 2-CG
   NFREE  =      1    steps in history (QN), initial steepest desc. (CG)
   ISIF   =      2    stress and relaxation
   IWAVPR =     10    prediction:  0-non 1-charg 2-wave 3-comb
   ISYM   =     -1    0-nonsym 1-usesym 2-fastsym
   LCORR  =      T    Harris-Foulkes like correction to forces

   POTIM  = 0.5000    time-step for ionic-motion
   TEIN   =    0.0    initial temperature
   TEBEG  =    0.0;   TEEND  =   0.0 temperature during run
   SMASS  =  -3.00    Nose mass-parameter (am)
   estimated Nose-frequenzy (Omega)   =  0.10E-29 period in steps =****** mass=  -0.261E-26a.u.
   SCALEE = 1.0000    scale energy and forces
   NPACO  =    256;   APACO  = 16.0  distance and # of slots for P.C.
   PSTRESS=    0.0 pullay stress

  Mass of Ions in am
   POMASS =  14.00 12.01
  Ionic Valenz
   ZVAL   =   5.00  4.00
  Atomic Wigner-Seitz radii
   RWIGS  =  -1.00 -1.00
  virtual crystal weights 
   VCA    =   1.00  1.00
   NELECT =     862.0000    total number of electrons
   NUPDOWN=      -1.0000    fix difference up-down

 DOS related values:
   EMIN   =  10.00;   EMAX   =-10.00  energy-range for DOS
   EFERMI =   0.00
   ISMEAR =    -2;   SIGMA  =   0.10  broadening in eV -4-tet -1-fermi 0-gaus

 Electronic relaxation 2 (details)
   IALGO  =     38    algorithm
   LDIAG  =      T    sub-space diagonalisation (order eigenvalues)
   LSUBROT=      F    optimize rotation matrix (better conditioning)
   TURBO    =      0    0=normal 1=particle mesh
   IRESTART =      0    0=no restart 2=restart with 2 vectors
   NREBOOT  =      0    no. of reboots
   NMIN     =      0    reboot dimension
   EREF     =   0.00    reference energy to select bands
   IMIX   =      4    mixing-type and parameters
     AMIX     =   0.40;   BMIX     =  1.00
     AMIX_MAG =   1.60;   BMIX_MAG =  1.00
     AMIN     =   0.10
     WC   =   100.;   INIMIX=   1;  MIXPRE=   1;  MAXMIX= -45

 Intra band minimization:
   WEIMIN = 0.0000     energy-eigenvalue tresh-hold
   EBREAK =  0.39E-08  absolut break condition
   DEPER  =   0.30     relativ break condition  

   TIME   =   0.40     timestep for ELM

  volume/ion in A,a.u.               =       5.67        38.26
  Fermi-wavevector in a.u.,A,eV,Ry     =   1.458529  2.756220 28.943770  2.127307
  Thomas-Fermi vector in A             =   2.575203
 
 Write flags
   LWAVE        =      T    write WAVECAR
   LDOWNSAMPLE  =      F    k-point downsampling of WAVECAR
   LCHARG       =      T    write CHGCAR
   LVTOT        =      F    write LOCPOT, total local potential
   LVHAR        =      F    write LOCPOT, Hartree potential only
   LELF         =      F    write electronic localiz. function (ELF)
   LORBIT       =     11    0 simple, 1 ext, 2 COOP (PROOUT), +10 PAW based schemes


 Dipole corrections
   LMONO  =      F    monopole corrections only (constant potential shift)
   LDIPOL =      F    correct potential (dipole corrections)
   IDIPOL =      0    1-x, 2-y, 3-z, 4-all directions 
   EPSILON=  1.0000000 bulk dielectric constant

 Exchange correlation treatment:
   GGA     =    --    GGA type
   LEXCH   =     8    internal setting for exchange type
   VOSKOWN=      0    Vosko Wilk Nusair interpolation
   LHFCALC =     F    Hartree Fock is set to
   LHFONE  =     F    Hartree Fock one center treatment
   AEXX    =    0.0000 exact exchange contribution

 Linear response parameters
   LEPSILON=     F    determine dielectric tensor
   LRPA    =     F    only Hartree local field effects (RPA)
   LNABLA  =     F    use nabla operator in PAW spheres
   LVEL    =     F    velocity operator in full k-point grid
   LINTERFAST=   F  fast interpolation
   KINTER  =     0    interpolate to denser k-point grid
   CSHIFT  =0.1000    complex shift for real part using Kramers Kronig
   OMEGAMAX=  -1.0    maximum frequency
   DEG_THRESHOLD= 0.2000000E-02 threshold for treating states as degnerate
   RTIME   =   -0.100 relaxation time in fs
  (WPLASMAI=    0.000 imaginary part of plasma frequency in eV, 0.658/RTIME)
   DFIELD  = 0.0000000 0.0000000 0.0000000 field for delta impulse in time
 
 Orbital magnetization related:
   ORBITALMAG=     F  switch on orbital magnetization
   LCHIMAG   =     F  perturbation theory with respect to B field
   DQ        =  0.001000  dq finite difference perturbation B field
   LLRAUG    =     F  two centre corrections for induced B field



--------------------------------------------------------------------------------------------------------


 Static calculation
 charge density and potential will be updated during run
 spin polarized calculation
 Variant of blocked Davidson
 Davidson routine will perform the subspace rotation
 perform sub-space diagonalisation
    after iterative eigenvector-optimisation
 modified Broyden-mixing scheme, WC =      100.0
 initial mixing is a Kerker type mixing with AMIX =  0.4000 and BMIX =      1.0000
 Hartree-type preconditioning will be used
 using additional bands          217
 real space projection scheme for non local part
 calculate Harris-corrections to forces 
   (improved forces if not selfconsistent)
 use gradient corrections 
 use of overlap-Matrix (Vanderbilt PP)
 partial occupancies read from INCAR or WAVECAR (fixed during run)


--------------------------------------------------------------------------------------------------------


  energy-cutoff  :      520.00
  volume of cell :     1218.95
      direct lattice vectors                 reciprocal lattice vectors
    10.682237625  0.000000000  0.000000000     0.093613345  0.000000012  0.000000012
    -0.000001422 10.682234764  0.000000000     0.000000000  0.093613370  0.000000075
    -0.000001422 -0.000008535 10.682234764     0.000000000  0.000000000  0.093613370

  length of vectors
    10.682237625 10.682234764 10.682234764     0.093613345  0.093613370  0.093613370


 
 k-points in units of 2pi/SCALE and weight: Num irrep kpoints: 1                    
   0.00000000  0.00000000  0.00000000       1.000
 
 k-points in reciprocal lattice and weights: Num irrep kpoints: 1                    
   0.00000000  0.00000000  0.00000000       1.000
 
 position of ions in fractional coordinates (direct lattice) 
   0.55030321  0.38352394  0.55023127
   0.95818343  0.79157044  0.12506782
   0.37544666  0.54154233  0.87489926
   0.29172544  0.12495850  0.79111444
   0.29276118  0.62403989  0.62481722
   0.37547429  0.70832728  0.70824717
   0.46203421  0.45833606  0.62517880
   0.54252315  0.54309326  0.70976472
   0.45876960  0.62565410  0.79230094
   0.54194663  0.70878840  0.87542603
   0.62490381  0.79154006  0.12537782
   0.70794408  0.87513116  0.20862480
   0.62487307  0.95872490  0.95815796
   0.70794359  0.04192451  0.04177402
   0.79163062  0.79189754  0.95854205
   0.87482998  0.87513323  0.04179188
   0.79126441  0.95840769  0.12508375
   0.87443001  0.04174230  0.20843961
   0.62487504  0.79202079  0.45836261
   0.70817163  0.87555400  0.54157379
   0.62457978  0.95873308  0.29168727
   0.70823942  0.04156980  0.37552305
   0.79138714  0.79165987  0.29178940
   0.87483132  0.87493645  0.37512357
   0.79145612  0.95843885  0.45795105
   0.87429602  0.04216067  0.54132703
   0.29280558  0.45799195  0.79061537
   0.62512197  0.79228946  0.79179542
   0.54189755  0.70863159  0.54183225
   0.54100780  0.54023531  0.37664976
   0.37506047  0.20823972  0.87458898
   0.29256836  0.29000687  0.62354758
   0.37646640  0.37398019  0.70670591
   0.45720851  0.12648900  0.62259608
   0.54077473  0.20974695  0.70673476
   0.45853163  0.29172889  0.79113290
   0.54184945  0.37506180  0.87520477
   0.29160020  0.45789079  0.12476842
   0.37517320  0.54178787  0.20790817
   0.29184155  0.62479331  0.95816815
   0.37509456  0.70828526  0.04151159
   0.45847045  0.45817491  0.95850470
   0.54174535  0.54141517  0.04209696
   0.45831227  0.62496747  0.12496032
   0.54148178  0.70789359  0.20888347
   0.29249086  0.45671678  0.45776950
   0.37669536  0.54025488  0.54097119
   0.29169065  0.62474072  0.29162815
   0.37508735  0.70808782  0.37500401
   0.45803172  0.45630760  0.29269828
   0.45857750  0.62461954  0.45850812
   0.54760828  0.20277262  0.36838068
   0.70829935  0.87552603  0.87501946
   0.70782462  0.04239185  0.70773909
   0.87541041  0.37521219  0.87543577
   0.62451925  0.45757191  0.12591179
   0.70790329  0.54107934  0.20906986
   0.62515313  0.62516342  0.95890529
   0.70830887  0.70837787  0.04217708
   0.79179318  0.45838801  0.95894152
   0.87497373  0.54163267  0.04214748
   0.79143648  0.62478241  0.12558237
   0.87478286  0.70821728  0.20860334
   0.62524733  0.45818233  0.46178742
   0.70973522  0.54303183  0.54243450
   0.62483957  0.62402768  0.29272612
   0.70825306  0.70835848  0.37542062
   0.79049117  0.45778948  0.29281797
   0.87481851  0.54148134  0.37537353
   0.79229080  0.62565654  0.45872049
   0.87540435  0.70879364  0.54191298
   0.62565523  0.45890194  0.79269776
   0.70881685  0.54211528  0.87579156
   0.62565052  0.62603793  0.62560440
   0.70881438  0.70915186  0.70879326
   0.79270113  0.45890799  0.62561355
   0.87576944  0.54211956  0.70879980
   0.79229580  0.29199947  0.79230797
   0.62438828  0.95934530  0.62421390
   0.87483525  0.20865131  0.70815685
   0.70970864  0.37569355  0.70967199
   0.79177966  0.79230917  0.62506650
   0.87498108  0.87550672  0.70829216
   0.79141141  0.95892924  0.79141376
   0.87479096  0.04192013  0.87484825
   0.62459424  0.12496957  0.12542479
   0.70839343  0.20887258  0.20810962
   0.62489278  0.29165753  0.95861060
   0.70822483  0.37484351  0.04215978
   0.79137674  0.12508610  0.95829126
   0.87484319  0.20839761  0.04156905
   0.79153721  0.29124862  0.12504957
   0.87429611  0.37461939  0.20885201
   0.62271204  0.12676328  0.45599944
   0.70650176  0.20955534  0.54033219
   0.62322435  0.28904534  0.29305715
   0.70645577  0.37356670  0.37621838
   0.79071893  0.12504968  0.29174932
   0.87432012  0.20820839  0.37494640
   0.79090531  0.29164091  0.45836805
   0.87506089  0.37499424  0.54171445
   0.62471230  0.12606108  0.79059833
   0.70822168  0.20867137  0.87494800
   0.62515538  0.29490782  0.62494371
   0.79048022  0.12611167  0.62449061
   0.45962560  0.12594437  0.29270649
   0.36771976  0.38014607  0.36828951
   0.29188322  0.29080718  0.29169619
   0.12489638  0.12482143  0.95803360
   0.20824144  0.20803939  0.04132816
   0.12435077  0.29131529  0.12435737
   0.20743739  0.37431433  0.20739292
   0.95789108  0.12510431  0.45813118
   0.04164701  0.20820454  0.54139856
   0.95786124  0.29139818  0.29180705
   0.04159022  0.37460624  0.37500824
   0.12483015  0.12484168  0.29160911
   0.20834697  0.20784303  0.37495508
   0.12532934  0.29126978  0.45806406
   0.20922775  0.37403094  0.54127258
   0.95817630  0.12509271  0.79140615
   0.04147792  0.20836292  0.87493386
   0.95846279  0.29170396  0.62486096
   0.04203638  0.37491583  0.70820306
   0.12505052  0.12487469  0.62458029
   0.20780842  0.20866092  0.70865252
   0.12489584  0.29142784  0.79168917
   0.20888008  0.37469686  0.87442340
   0.95797470  0.45811331  0.12535563
   0.04146410  0.54142104  0.20842636
   0.95851879  0.62496977  0.95853477
   0.04139181  0.37480376  0.04141648
   0.04172106  0.70825388  0.04173000
   0.95826681  0.29157413  0.95834063
   0.95791747  0.12481647  0.12492422
   0.04148847  0.87491692  0.20828972
   0.95818463  0.95839076  0.95821336
   0.04150178  0.04159746  0.04155986
   0.12507814  0.79156291  0.95820510
   0.20830814  0.87489558  0.04152453
   0.12489837  0.95821323  0.12489216
   0.20832278  0.04148414  0.20824011
   0.95826152  0.79170868  0.45831298
   0.04139718  0.87477559  0.54146092
   0.95792976  0.95826344  0.29154550
   0.04125872  0.04143811  0.37484544
   0.12489255  0.79146577  0.29156208
   0.20824549  0.87476936  0.37479333
   0.12440576  0.95772445  0.45817386
   0.20750823  0.04076448  0.54089216
   0.95852018  0.79189113  0.79163093
   0.04174622  0.87509671  0.87487836
   0.95802224  0.95870708  0.62480471
   0.04157139  0.04181113  0.70802222
   0.12533780  0.79146647  0.62487995
   0.20854592  0.87495452  0.70802554
   0.12503536  0.95835253  0.79131644
   0.20835246  0.04162009  0.87464390
   0.04121902  0.20806156  0.20817638
   0.12533261  0.45815784  0.95803547
   0.20845979  0.54142538  0.04148889
   0.12500064  0.62469088  0.12499517
   0.37538555  0.04220325  0.37478690
   0.45830174  0.79156751  0.29181914
   0.54147612  0.87531478  0.37495519
   0.45817915  0.95902090  0.45798079
   0.54109472  0.04305879  0.54043143
   0.29183084  0.79158358  0.79143420
   0.37514213  0.87488253  0.87490627
   0.29165427  0.95835767  0.62456816
   0.37537412  0.04137506  0.70833260
   0.45844426  0.79194874  0.62484746
   0.54170344  0.87552034  0.70808877
   0.45816908  0.95834638  0.79154656
   0.54144155  0.04217129  0.87444320
   0.29182567  0.12489844  0.12496700
   0.37544232  0.20773167  0.20861084
   0.29183782  0.29145353  0.95802142
   0.37514354  0.37456442  0.04172280
   0.45827214  0.12510251  0.95811668
   0.54151592  0.20817208  0.04188742
   0.45821329  0.29121333  0.12552813
   0.54147199  0.37358743  0.20952179
   0.29236017  0.12540450  0.45850268
   0.36765387  0.20266725  0.54711372
   0.29190272  0.95841258  0.29174054
   0.37512197  0.87520650  0.54131963
   0.29185197  0.79149834  0.45821581
   0.54084768  0.04100105  0.20770061
   0.20826561  0.70812145  0.20823049
   0.95843177  0.45817278  0.45843402
   0.04200955  0.54147653  0.54168592
   0.95813024  0.62477546  0.29180706
   0.04147372  0.70830165  0.37504331
   0.12477192  0.45788867  0.29154059
   0.20779421  0.54195418  0.37511156
   0.12490226  0.62502698  0.45827258
   0.20890149  0.70787331  0.54144309
   0.95888510  0.45842835  0.79182661
   0.04213622  0.54164402  0.87498986
   0.79207872  0.62542542  0.79208201
   0.95886945  0.62518147  0.62513708
   0.12576446  0.45777171  0.62454123
   0.20907243  0.54117213  0.70790788
   0.12556510  0.62480758  0.79146457
   0.20861307  0.70819456  0.87481740
   0.29163093  0.79148282  0.12489762
   0.37492436  0.87480026  0.20816450
   0.29162137  0.95823900  0.95806230
   0.37495438  0.04142387  0.04139865
   0.45839183  0.79169869  0.95832496
   0.54146650  0.87482086  0.04146633
   0.45839196  0.95784409  0.12452903
   0.04214687  0.70835531  0.70831299
   0.87526961  0.70863482  0.87528407
 
 position of ions in cartesian coordinates  (Angst):
   5.87846829  4.09688809  5.87769963
  10.23554178  8.45574021  1.33600385
   4.01060847  5.78487487  9.34587931
   3.11627916  1.33482925  8.45087020
   3.12734277  6.66613526  6.67444422
   4.01090357  7.56651223  7.56566254
   4.93555766  4.89604801  6.67830668
   5.79535938  5.80144364  7.58187340
   4.90068382  6.68337722  8.46354462
   5.78920040  7.57143661  9.35150642
   6.67536973  8.45541567  1.33931533
   7.56242532  9.34835471  2.22857911
   6.67503988 10.24131630 10.23526822
   7.56242156  0.44784714  0.44623992
   8.45638389  8.45922722 10.23937125
   9.34514039  9.34837830  0.44643067
   8.45247291 10.23793493  1.33617397
   9.34086880  0.44589926  2.22660085
   6.67506186  8.46054814  4.89633703
   7.56485559  9.35286874  5.78521837
   6.67190782 10.24140933  3.11587190
   7.56558118  0.44405518  4.01142543
   8.45378389  8.45669411  3.11696284
   9.34515430  9.34627338  4.00715801
   8.45452028 10.23826489  4.89194061
   9.33943703  0.45036551  5.78258247
   3.12781700  4.89237075  8.44553897
   6.67769921  8.46341527  8.45814458
   5.78867659  7.56976437  5.78797934
   5.77917260  5.77091724  4.02346111
   4.00648349  2.22445814  9.34256479
   3.12528341  3.09791614  6.66088166
   4.02150197  3.99493814  7.54919847
   4.88400888  1.35117985  6.65071746
   5.77668286  2.24056009  7.54950664
   4.89814226  3.11630970  8.45106736
   5.78816285  4.00649074  9.34914282
   3.11494179  4.89129588  1.33280561
   4.00768821  5.78750347  2.22092391
   3.11751859  6.67418063 10.23537712
   4.00684819  7.56606908  0.44343653
   4.89748823  4.89432379 10.23897227
   5.78705168  5.78352357  0.44968961
   4.89579949  6.67604815  1.33485542
   5.78423571  7.56188372  2.23134225
   3.12445554  4.87875196  4.89000127
   4.02394781  5.77112481  5.77878130
   3.11590752  6.67362450  3.11524040
   4.00677065  7.56395716  4.00588087
   4.89280261  4.87438242  3.12667173
   4.89863231  6.67232865  4.89789139
   5.84968093  2.16606159  3.93512894
   7.56621945  9.35256711  9.34716334
   7.56114970  0.45283367  7.56023516
   9.35134024  4.00809718  9.35161045
   6.67126218  4.88788952  1.34501935
   7.56199010  5.77993472  2.23333338
   6.67803201  6.67813428 10.24325137
   7.56632264  7.56705834  0.45054542
   8.45812083  4.89660013 10.24363844
   9.34667643  5.78584700  0.45022928
   8.45431148  6.67407132  1.34150032
   9.34463711  7.56534151  2.22834985
   6.67903923  4.89440733  4.93292159
   7.58155876  5.80078885  5.79441265
   6.67468346  6.66600771  3.12696918
   7.56572595  7.56684841  4.01033123
   8.44421347  4.89021223  3.12795030
   9.34501790  5.78422762  4.00982814
   8.46343705  6.68340607  4.90015997
   9.35127551  7.57149539  5.78884170
   6.68339607  4.90209151  8.46778361
   7.57174803  5.79099518  9.35541109
   6.68334571  6.68747884  6.68285305
   7.57172160  7.57532063  7.57149596
   8.46782029  4.90215755  6.68295076
   9.35517545  5.79104237  7.57156589
   8.46349043  3.11920011  8.46361977
   6.66986169 10.24794634  6.66799945
   9.34519677  2.22885619  7.56469771
   7.58127482  4.01324070  7.58088285
   8.45797646  8.46362717  6.67710711
   9.34675356  9.35236231  7.56614317
   8.45404227 10.24350055  8.45406759
   9.34472364  0.44779317  9.34533439
   6.67206376  1.33495323  1.33981703
   7.56722631  2.23122415  2.22307586
   6.67525141  3.11554604 10.24010350
   7.56542535  4.00416602  0.45036066
   8.45367280  1.33619093 10.23669223
   9.34528252  2.22615188  0.44405030
   8.45538801  3.11118511  1.33580890
   9.33943800  4.00177053  2.23100617
   6.65195712  1.35411123  4.87109312
   7.54701866  2.23851472  5.77195527
   6.65742978  3.08764764  3.13050527
   7.54652736  3.99052398  4.01885301
   8.44664691  1.33580758  3.11653478
   9.33969447  2.22412769  4.00526551
   8.44863737  3.11537276  4.89639514
   9.34760704  4.00577185  5.78672091
   6.67332394  1.34660735  8.44535692
   7.56539077  2.22906912  9.34639997
   6.67805705  3.15026927  6.67579539
   8.44409651  1.34714918  6.67095526
   4.90982933  1.34536488  3.12675949
   3.92806878  4.06080646  3.93415497
   3.11796505  3.10646811  3.11596718
   1.33417124  1.33336361 10.23393986
   2.22448418  2.22232520  0.44147706
   1.32834387  3.11189721  1.32841460
   2.21589469  3.99851180  2.21541986
  10.23241927  1.33638966  4.89386480
   0.44488214  2.22408511  5.78334649
  10.23210053  3.11278131  3.11715138
   0.44427554  4.00162858  4.00592608
   1.33346471  1.33358564  3.11503699
   2.22561098  2.22022485  4.00535819
   1.33879674  3.11140826  4.89314786
   2.23501922  3.99548171  5.78200075
  10.23546564  1.33626295  8.45398627
   0.44307542  2.22577420  9.34624891
  10.23852597  3.11604488  6.67491150
   0.44904106  4.00493284  7.56519133
   1.33581832  1.33393541  6.67191324
   2.21985758  2.22895891  7.56999258
   1.33416552  3.11309384  8.45700954
   2.23130483  4.00259232  9.34079605
  10.23331251  4.89367288  1.33907824
   0.44292825  5.78358488  2.22645927
  10.23912325  6.67606562 10.23929340
   0.44215653  4.00374144  0.44242060
   0.44567320  7.56573381  0.44576966
  10.23643198  3.11465517 10.23721962
  10.23270168  1.33331782  1.33446987
   0.44318811  9.34606612  2.22499964
  10.23555323 10.23774694 10.23586006
   0.44333178  0.44435352  0.44395220
   1.33611193  8.45565262 10.23577186
   2.22519574  9.34583963  0.44357476
   1.33419258 10.23585759  1.33412737
   2.22535309  0.44314153  2.22446978
  10.23637547  8.45721410  4.89580682
   0.44221247  9.34455360  5.78401266
  10.23283160 10.23639252  3.11435750
   0.44073485  0.44264839  4.00418694
   1.33413038  8.45462062  3.11453457
   2.22452604  9.34448852  4.00363032
   1.32892990 10.23063354  4.89432075
   2.21665144  0.43545112  5.77793708
  10.23913808  8.45916018  8.45638743
   0.44594059  9.34798101  9.34565605
  10.23381895 10.24112877  6.67431056
   0.44407441  0.44663023  7.56325962
   1.33888611  8.45462533  6.67511436
   2.22773479  9.34646358  7.56329505
   1.33565498 10.23734000  8.45302795
   2.22566918  0.44458815  9.34315151
   0.44031082  2.22256069  2.22378901
   1.33883072  4.89414145 10.23395976
   2.22681618  5.78363266  0.44319403
   1.33528551  6.67309355  1.33522775
   4.00995707  0.45082187  4.00356161
   4.89568655  8.45570750  3.11728057
   5.78417479  9.35031473  4.00535935
   4.89437658 10.24448248  4.89225827
   5.78010150  0.45995949  5.77301542
   3.11740414  8.45587492  8.45428588
   4.00735486  9.34569309  9.34595417
   3.11551797 10.23739633  6.67178372
   4.00983447  0.44197209  7.56657513
   4.89720850  8.45977699  6.67476725
   5.78660262  9.35250772  7.56397046
   4.89426845 10.23727422  8.45548614
   5.78380599  0.45047612  9.34100751
   3.11735081  1.33419335  1.33492684
   4.01056348  2.21903672  2.22842992
   3.11747921  3.11336683 10.23380970
   4.00737184  4.00118471  0.44569278
   4.89537041  1.33636623 10.23482729
   5.78460143  2.22374269  0.44745123
   4.89474268  3.11080813  1.34092099
   5.78413163  3.99074686  2.23816098
   3.12306003  1.33959644  4.89783331
   3.92736494  2.16493448  5.84439718
   3.11817240 10.23798568  3.11644092
   4.00714004  9.34915671  5.78250338
   3.11763030  8.45496717  4.89476888
   5.77746309  0.43798109  2.21870665
   2.22474147  7.56431778  2.22436699
  10.23819459  4.89430532  4.89709983
   0.44875449  5.78417475  5.78641612
  10.23497357  6.67399562  3.11715148
   0.44303061  7.56624128  4.00630072
   1.33284223  4.89127176  3.11430498
   2.21970581  5.78927855  4.00702970
   1.33423408  6.67668101  4.89537528
   2.23153362  7.56166428  5.78382221
  10.24303671  4.89703249  8.45847778
   0.45010705  5.78596111  9.34684711
   8.46117107  6.68093437  8.46120602
  10.24286957  6.67832987  6.67786103
   1.34344430  4.89001958  6.67149609
   2.23335965  5.78092170  7.56203815
   1.34131424  6.67433448  8.45461033
   2.22845211  7.56509305  9.34500486
   3.11526955  8.45480420  1.33418572
   4.00502954  9.34481997  2.22366206
   3.11516605 10.23612577 10.23424643
   4.00535168  0.44249916  0.44223010
   4.89664796  8.45710314 10.23705216
   5.78407252  9.34504146  0.44295307
   4.89665029 10.23191441  1.33024830
   0.45022081  7.56681171  7.56636567
   9.34983569  7.56979600  9.34998987
 


--------------------------------------------------------------------------------------------------------


 k-point  1 :   0.0000 0.0000 0.0000  plane waves:   32795

 maximum and minimum number of plane-waves per node :      1372     1363

 maximum number of plane-waves:     32795
 maximum index in each direction: 
   IXMAX=   19   IYMAX=   19   IZMAX=   19
   IXMIN=  -19   IYMIN=  -19   IZMIN=  -19


 real space projection operators:
  total allocation   :       9745.94 KBytes
  max/ min on nodes  :        517.75        296.56


 parallel 3D FFT for wavefunctions:
    minimum data exchange during FFTs selected (reduces bandwidth)
 parallel 3D FFT for charge:
    minimum data exchange during FFTs selected (reduces bandwidth)


 total amount of memory used by VASP MPI-rank0    56899. kBytes
=======================================================================

   base      :      30000. kBytes
   nonlr-proj:       5757. kBytes
   fftplans  :       1766. kBytes
   grid      :       4371. kBytes
   one-center:         55. kBytes
   wavefun   :      14950. kBytes
 
     INWAV:  cpu time    0.0000: real time    0.0001
 Broyden mixing: mesh for mixing (old mesh)
   NGX = 39   NGY = 39   NGZ = 39
  (NGX  =120   NGY  =120   NGZ  =120)
  gives a total of  59319 points

 initial charge density was supplied:
 charge density of overlapping atoms calculated
 number of electron     861.0000000 magnetization     215.0000000
 keeping initial charge density in first step


--------------------------------------------------------------------------------------------------------


 Maximum index for non-local projection operator           96
 Maximum index for augmentation-charges          189 (set IRDMAX)


--------------------------------------------------------------------------------------------------------


 First call to EWALD:  gamma=   0.166
 Maximum number of real-space cells 3x 3x 3
 Maximum number of reciprocal cells 3x 3x 3

    FEWALD:  cpu time    0.0059: real time    0.0060


--------------------------------------- Iteration      1(   1)  ---------------------------------------


    POTLOK:  cpu time    0.0554: real time    0.0688
    SETDIJ:  cpu time    0.6076: real time    0.6165
     EDDAV:  cpu time    3.7649: real time    3.7810
       DOS:  cpu time    0.0006: real time    0.0006
    --------------------------------------------
      LOOP:  cpu time    4.4285: real time    4.4670

 eigenvalue-minimisations  :  2592
 total energy-change (2. order) : 0.2601879E+04  (-0.4518178E+05)
 number of electron     861.0000000 magnetization     215.0000000
 augmentation part      861.0000000 magnetization     215.0000000

 Free energy of the ion-electron system (eV)
  ---------------------------------------------------
  alpha Z        PSCENC =      3094.29412155
  Ewald energy   TEWEN  =    -37390.26065066
  -Hartree energ DENC   =     -2001.49002160
  -exchange      EXHF   =         0.00000000
  -V(xc)+E(xc)   XCENC  =      3119.59740412
  PAW double counting   =      8187.82506601    -8433.47535200
  entropy T*S    EENTRO =         0.00000000
  eigenvalues    EBANDS =      4270.98946777
  atomic energy  EATOM  =     31754.39923918
  Solvation  Ediel_sol  =         0.00000000
  ---------------------------------------------------
  free energy    TOTEN  =      2601.87927437 eV

  energy without entropy =     2601.87927437  energy(sigma->0) =     2601.87927437


--------------------------------------------------------------------------------------------------------




--------------------------------------- Iteration      1(   2)  ---------------------------------------


     EDDAV:  cpu time    4.3025: real time    4.3176
       DOS:  cpu time    0.0006: real time    0.0006
    --------------------------------------------
      LOOP:  cpu time    4.3031: real time    4.3182

 eigenvalue-minimisations  :  3112
 total energy-change (2. order) :-0.4286276E+04  (-0.4047850E+04)
 number of electron     861.0000000 magnetization     215.0000000
 augmentation part      861.0000000 magnetization     215.0000000

 Free energy of the ion-electron system (eV)
  ---------------------------------------------------
  alpha Z        PSCENC =      3094.29412155
  Ewald energy   TEWEN  =    -37390.26065066
  -Hartree energ DENC   =     -2001.49002160
  -exchange      EXHF   =         0.00000000
  -V(xc)+E(xc)   XCENC  =      3119.59740412
  PAW double counting   =      8187.82506601    -8433.47535200
  entropy T*S    EENTRO =         0.00000000
  eigenvalues    EBANDS =       -15.28684076
  atomic energy  EATOM  =     31754.39923918
  Solvation  Ediel_sol  =         0.00000000
  ---------------------------------------------------
  free energy    TOTEN  =     -1684.39703416 eV

  energy without entropy =    -1684.39703416  energy(sigma->0) =    -1684.39703416


--------------------------------------------------------------------------------------------------------




--------------------------------------- Iteration      1(   3)  ---------------------------------------


     EDDAV:  cpu time    4.5900: real time    4.6077
       DOS:  cpu time    0.0006: real time    0.0006
    --------------------------------------------
      LOOP:  cpu time    4.5906: real time    4.6083

 eigenvalue-minimisations  :  3360
 total energy-change (2. order) :-0.2270724E+03  (-0.2245588E+03)
 number of electron     861.0000000 magnetization     215.0000000
 augmentation part      861.0000000 magnetization     215.0000000

 Free energy of the ion-electron system (eV)
  ---------------------------------------------------
  alpha Z        PSCENC =      3094.29412155
  Ewald energy   TEWEN  =    -37390.26065066
  -Hartree energ DENC   =     -2001.49002160
  -exchange      EXHF   =         0.00000000
  -V(xc)+E(xc)   XCENC  =      3119.59740412
  PAW double counting   =      8187.82506601    -8433.47535200
  entropy T*S    EENTRO =         0.00000000
  eigenvalues    EBANDS =      -242.35919605
  atomic energy  EATOM  =     31754.39923918
  Solvation  Ediel_sol  =         0.00000000
  ---------------------------------------------------
  free energy    TOTEN  =     -1911.46938945 eV

  energy without entropy =    -1911.46938945  energy(sigma->0) =    -1911.46938945


--------------------------------------------------------------------------------------------------------




--------------------------------------- Iteration      1(   4)  ---------------------------------------


     EDDAV:  cpu time    4.5213: real time    4.5337
       DOS:  cpu time    0.0007: real time    0.0007
    --------------------------------------------
      LOOP:  cpu time    4.5220: real time    4.5344

 eigenvalue-minimisations  :  3328
 total energy-change (2. order) :-0.3784193E+01  (-0.3764904E+01)
 number of electron     861.0000000 magnetization     215.0000000
 augmentation part      861.0000000 magnetization     215.0000000

 Free energy of the ion-electron system (eV)
  ---------------------------------------------------
  alpha Z        PSCENC =      3094.29412155
  Ewald energy   TEWEN  =    -37390.26065066
  -Hartree energ DENC   =     -2001.49002160
  -exchange      EXHF   =         0.00000000
  -V(xc)+E(xc)   XCENC  =      3119.59740412
  PAW double counting   =      8187.82506601    -8433.47535200
  entropy T*S    EENTRO =         0.00000000
  eigenvalues    EBANDS =      -246.14338954
  atomic energy  EATOM  =     31754.39923918
  Solvation  Ediel_sol  =         0.00000000
  ---------------------------------------------------
  free energy    TOTEN  =     -1915.25358294 eV

  energy without entropy =    -1915.25358294  energy(sigma->0) =    -1915.25358294


--------------------------------------------------------------------------------------------------------




--------------------------------------- Iteration      1(   5)  ---------------------------------------


     EDDAV:  cpu time    4.5566: real time    4.5715
       DOS:  cpu time    0.0007: real time    0.0007
    CHARGE:  cpu time    0.0576: real time    0.0578
    MIXING:  cpu time    0.0022: real time    0.0028
    --------------------------------------------
      LOOP:  cpu time    4.6171: real time    4.6329

 eigenvalue-minimisations  :  3360
 total energy-change (2. order) :-0.8457752E-01  (-0.8444668E-01)
 number of electron     861.9998995 magnetization     127.4007698
 augmentation part       21.8521974 magnetization     125.4566147

 Broyden mixing:
  rms(total) = 0.86736E+01    rms(broyden)= 0.86728E+01
  rms(prec ) = 0.93945E+01
  weight for this iteration     100.00

 Free energy of the ion-electron system (eV)
  ---------------------------------------------------
  alpha Z        PSCENC =      3094.29412155
  Ewald energy   TEWEN  =    -37390.26065066
  -Hartree energ DENC   =     -2001.49002160
  -exchange      EXHF   =         0.00000000
  -V(xc)+E(xc)   XCENC  =      3119.59740412
  PAW double counting   =      8187.82506601    -8433.47535200
  entropy T*S    EENTRO =         0.00000000
  eigenvalues    EBANDS =      -246.22796706
  atomic energy  EATOM  =     31754.39923918
  Solvation  Ediel_sol  =         0.00000000
  ---------------------------------------------------
  free energy    TOTEN  =     -1915.33816046 eV

  energy without entropy =    -1915.33816046  energy(sigma->0) =    -1915.33816046


--------------------------------------------------------------------------------------------------------




--------------------------------------- Iteration      1(   6)  ---------------------------------------


    POTLOK:  cpu time    0.0432: real time    0.0474
    SETDIJ:  cpu time    0.6082: real time    0.6143
     EDDAV:  cpu time    4.1306: real time    4.1421
       DOS:  cpu time    0.0008: real time    0.0008
    CHARGE:  cpu time    0.0525: real time    0.0526
    MIXING:  cpu time    0.0018: real time    0.0018
    --------------------------------------------
      LOOP:  cpu time    4.8370: real time    4.8590

 eigenvalue-minimisations  :  2976
 total energy-change (2. order) : 0.1644426E+02  (-0.9038196E+01)
 number of electron     861.9999017 magnetization      56.1968524
 augmentation part       21.3335712 magnetization      53.8870203

 Broyden mixing:
  rms(total) = 0.46625E+01    rms(broyden)= 0.46625E+01
  rms(prec ) = 0.50581E+01
  weight for this iteration     100.00

 eigenvalues of (default mixing * dielectric matrix)
  average eigenvalue GAMMA=   0.9711
  0.9711

 Free energy of the ion-electron system (eV)
  ---------------------------------------------------
  alpha Z        PSCENC =      3094.29412155
  Ewald energy   TEWEN  =    -37390.26065066
  -Hartree energ DENC   =     -2418.33466446
  -exchange      EXHF   =         0.00000000
  -V(xc)+E(xc)   XCENC  =      3151.44946394
  PAW double counting   =     10683.26931340   -10946.52980515
  entropy T*S    EENTRO =         0.00000000
  eigenvalues    EBANDS =       172.81908585
  atomic energy  EATOM  =     31754.39923918
  Solvation  Ediel_sol  =         0.00000000
  ---------------------------------------------------
  free energy    TOTEN  =     -1898.89389636 eV

  energy without entropy =    -1898.89389636  energy(sigma->0) =    -1898.89389636


--------------------------------------------------------------------------------------------------------




--------------------------------------- Iteration      1(   7)  ---------------------------------------


    POTLOK:  cpu time    0.0418: real time    0.0482
    SETDIJ:  cpu time    0.6120: real time    0.6135
     EDDAV:  cpu time    4.0921: real time    4.1042
       DOS:  cpu time    0.0007: real time    0.0007
    CHARGE:  cpu time    0.0520: real time    0.0522
    MIXING:  cpu time    0.0015: real time    0.0015
    --------------------------------------------
      LOOP:  cpu time    4.8002: real time    4.8203

 eigenvalue-minimisations  :  2952
 total energy-change (2. order) :-0.3037923E+02  (-0.5950227E+01)
 number of electron     861.9999035 magnetization       8.0839984
 augmentation part       20.9204722 magnetization       6.0871372

 Broyden mixing:
  rms(total) = 0.20052E+01    rms(broyden)= 0.20052E+01
  rms(prec ) = 0.21260E+01
  weight for this iteration     100.00

 eigenvalues of (default mixing * dielectric matrix)
  average eigenvalue GAMMA=   1.5160
  0.7952  2.2369

 Free energy of the ion-electron system (eV)
  ---------------------------------------------------
  alpha Z        PSCENC =      3094.29412155
  Ewald energy   TEWEN  =    -37390.26065066
  -Hartree energ DENC   =     -2758.59858576
  -exchange      EXHF   =         0.00000000
  -V(xc)+E(xc)   XCENC  =      3160.50479851
  PAW double counting   =     12819.08216700   -13092.85332606
  entropy T*S    EENTRO =         0.00000000
  eigenvalues    EBANDS =       484.15910650
  atomic energy  EATOM  =     31754.39923918
  Solvation  Ediel_sol  =         0.00000000
  ---------------------------------------------------
  free energy    TOTEN  =     -1929.27312974 eV

  energy without entropy =    -1929.27312974  energy(sigma->0) =    -1929.27312974


--------------------------------------------------------------------------------------------------------




--------------------------------------- Iteration      1(   8)  ---------------------------------------


    POTLOK:  cpu time    0.0410: real time    0.0413
    SETDIJ:  cpu time    0.6107: real time    0.6121
     EDDAV:  cpu time    4.2439: real time    4.2541
       DOS:  cpu time    0.0007: real time    0.0007
    CHARGE:  cpu time    0.0518: real time    0.0520
    MIXING:  cpu time    0.0014: real time    0.0014
    --------------------------------------------
      LOOP:  cpu time    4.9496: real time    4.9616

 eigenvalue-minimisations  :  3088
 total energy-change (2. order) :-0.4915124E+01  (-0.9420418E+00)
 number of electron     861.9999045 magnetization       4.5542459
 augmentation part       20.7095300 magnetization       2.6630506

 Broyden mixing:
  rms(total) = 0.38012E+00    rms(broyden)= 0.37998E+00
  rms(prec ) = 0.40757E+00
  weight for this iteration     100.00

 eigenvalues of (default mixing * dielectric matrix)
  average eigenvalue GAMMA=   1.3185
  2.3297  0.9045  0.7213

 Free energy of the ion-electron system (eV)
  ---------------------------------------------------
  alpha Z        PSCENC =      3094.29412155
  Ewald energy   TEWEN  =    -37390.26065066
  -Hartree energ DENC   =     -2970.49250758
  -exchange      EXHF   =         0.00000000
  -V(xc)+E(xc)   XCENC  =      3178.21429407
  PAW double counting   =     14256.28209442   -14534.77131214
  entropy T*S    EENTRO =         0.00000000
  eigenvalues    EBANDS =       678.14646722
  atomic energy  EATOM  =     31754.39923918
  Solvation  Ediel_sol  =         0.00000000
  ---------------------------------------------------
  free energy    TOTEN  =     -1934.18825394 eV

  energy without entropy =    -1934.18825394  energy(sigma->0) =    -1934.18825394


--------------------------------------------------------------------------------------------------------




--------------------------------------- Iteration      1(   9)  ---------------------------------------


    POTLOK:  cpu time    0.0409: real time    0.0411
    SETDIJ:  cpu time    0.6112: real time    0.6127
     EDDAV:  cpu time    4.3632: real time    4.3781
       DOS:  cpu time    0.0007: real time    0.0007
    CHARGE:  cpu time    0.0522: real time    0.0523
    MIXING:  cpu time    0.0016: real time    0.0016
    --------------------------------------------
      LOOP:  cpu time    5.0698: real time    5.0866

 eigenvalue-minimisations  :  3144
 total energy-change (2. order) :-0.1398848E+00  (-0.4536556E-01)
 number of electron     861.9999044 magnetization       2.1963455
 augmentation part       20.7248050 magnetization       0.2776752

 Broyden mixing:
  rms(total) = 0.19615E+00    rms(broyden)= 0.19615E+00
  rms(prec ) = 0.21194E+00
  weight for this iteration     100.00

 eigenvalues of (default mixing * dielectric matrix)
  average eigenvalue GAMMA=   1.3415
  2.3720  1.5067  0.8270  0.6603

 Free energy of the ion-electron system (eV)
  ---------------------------------------------------
  alpha Z        PSCENC =      3094.29412155
  Ewald energy   TEWEN  =    -37390.26065066
  -Hartree energ DENC   =     -2963.21350059
  -exchange      EXHF   =         0.00000000
  -V(xc)+E(xc)   XCENC  =      3177.50424446
  PAW double counting   =     14281.12045557   -14558.18420647
  entropy T*S    EENTRO =         0.00000000
  eigenvalues    EBANDS =       670.01215828
  atomic energy  EATOM  =     31754.39923918
  Solvation  Ediel_sol  =         0.00000000
  ---------------------------------------------------
  free energy    TOTEN  =     -1934.32813869 eV

  energy without entropy =    -1934.32813869  energy(sigma->0) =    -1934.32813869


--------------------------------------------------------------------------------------------------------




--------------------------------------- Iteration      1(  10)  ---------------------------------------


    POTLOK:  cpu time    0.0408: real time    0.0435
    SETDIJ:  cpu time    0.6115: real time    0.6132
     EDDAV:  cpu time    4.2573: real time    4.2681
       DOS:  cpu time    0.0008: real time    0.0008
    CHARGE:  cpu time    0.0529: real time    0.0530
    MIXING:  cpu time    0.0020: real time    0.0020
    --------------------------------------------
      LOOP:  cpu time    4.9653: real time    4.9806

 eigenvalue-minimisations  :  3104
 total energy-change (2. order) : 0.1314340E-01  (-0.1778246E-01)
 number of electron     861.9999043 magnetization       1.8526299
 augmentation part       20.7385848 magnetization      -0.0302851

 Broyden mixing:
  rms(total) = 0.54703E-01    rms(broyden)= 0.54693E-01
  rms(prec ) = 0.58724E-01
  weight for this iteration     100.00

 eigenvalues of (default mixing * dielectric matrix)
  average eigenvalue GAMMA=   1.3555
  2.4644  2.0391  0.8845  0.7665  0.6227

 Free energy of the ion-electron system (eV)
  ---------------------------------------------------
  alpha Z        PSCENC =      3094.29412155
  Ewald energy   TEWEN  =    -37390.26065066
  -Hartree energ DENC   =     -2955.14781209
  -exchange      EXHF   =         0.00000000
  -V(xc)+E(xc)   XCENC  =      3176.76451108
  PAW double counting   =     14283.30751511   -14558.94523073
  entropy T*S    EENTRO =         0.00000000
  eigenvalues    EBANDS =       661.27331128
  atomic energy  EATOM  =     31754.39923918
  Solvation  Ediel_sol  =         0.00000000
  ---------------------------------------------------
  free energy    TOTEN  =     -1934.31499529 eV

  energy without entropy =    -1934.31499529  energy(sigma->0) =    -1934.31499529


--------------------------------------------------------------------------------------------------------




--------------------------------------- Iteration      1(  11)  ---------------------------------------


    POTLOK:  cpu time    0.0408: real time    0.0411
    SETDIJ:  cpu time    0.6129: real time    0.6144
     EDDAV:  cpu time    4.3226: real time    4.3354
       DOS:  cpu time    0.0008: real time    0.0008
    CHARGE:  cpu time    0.0521: real time    0.0522
    MIXING:  cpu time    0.0016: real time    0.0016
    --------------------------------------------
      LOOP:  cpu time    5.0307: real time    5.0455

 eigenvalue-minimisations  :  3160
 total energy-change (2. order) : 0.4197263E-02  (-0.1704213E-02)
 number of electron     861.9999043 magnetization       1.9068142
 augmentation part       20.7417946 magnetization       0.0166710

 Broyden mixing:
  rms(total) = 0.16943E-01    rms(broyden)= 0.16940E-01
  rms(prec ) = 0.19723E-01
  weight for this iteration     100.00

 eigenvalues of (default mixing * dielectric matrix)
  average eigenvalue GAMMA=   1.3039
  2.4804  2.0875  1.0837  0.8106  0.7441  0.6169

 Free energy of the ion-electron system (eV)
  ---------------------------------------------------
  alpha Z        PSCENC =      3094.29412155
  Ewald energy   TEWEN  =    -37390.26065066
  -Hartree energ DENC   =     -2953.89836305
  -exchange      EXHF   =         0.00000000
  -V(xc)+E(xc)   XCENC  =      3176.65496060
  PAW double counting   =     14281.94509328   -14557.28383772
  entropy T*S    EENTRO =         0.00000000
  eigenvalues    EBANDS =       659.83863879
  atomic energy  EATOM  =     31754.39923918
  Solvation  Ediel_sol  =         0.00000000
  ---------------------------------------------------
  free energy    TOTEN  =     -1934.31079803 eV

  energy without entropy =    -1934.31079803  energy(sigma->0) =    -1934.31079803


--------------------------------------------------------------------------------------------------------




--------------------------------------- Iteration      1(  12)  ---------------------------------------


    POTLOK:  cpu time    0.0408: real time    0.0430
    SETDIJ:  cpu time    0.6108: real time    0.6123
     EDDAV:  cpu time    4.5023: real time    4.5136
       DOS:  cpu time    0.0007: real time    0.0007
    CHARGE:  cpu time    0.0510: real time    0.0511
    MIXING:  cpu time    0.0017: real time    0.0017
    --------------------------------------------
      LOOP:  cpu time    5.2073: real time    5.2224

 eigenvalue-minimisations  :  3320
 total energy-change (2. order) :-0.8675904E-03  (-0.1152957E-03)
 number of electron     861.9999043 magnetization       1.9615880
 augmentation part       20.7421342 magnetization       0.0707761

 Broyden mixing:
  rms(total) = 0.81879E-02    rms(broyden)= 0.81873E-02
  rms(prec ) = 0.96165E-02
  weight for this iteration     100.00

 eigenvalues of (default mixing * dielectric matrix)
  average eigenvalue GAMMA=   1.3192
  2.4933  2.1461  1.4998  0.9638  0.7976  0.7184  0.6158

 Free energy of the ion-electron system (eV)
  ---------------------------------------------------
  alpha Z        PSCENC =      3094.29412155
  Ewald energy   TEWEN  =    -37390.26065066
  -Hartree energ DENC   =     -2954.36042670
  -exchange      EXHF   =         0.00000000
  -V(xc)+E(xc)   XCENC  =      3176.69935290
  PAW double counting   =     14281.13295972   -14556.45357833
  entropy T*S    EENTRO =         0.00000000
  eigenvalues    EBANDS =       660.23731673
  atomic energy  EATOM  =     31754.39923918
  Solvation  Ediel_sol  =         0.00000000
  ---------------------------------------------------
  free energy    TOTEN  =     -1934.31166562 eV

  energy without entropy =    -1934.31166562  energy(sigma->0) =    -1934.31166562


--------------------------------------------------------------------------------------------------------




--------------------------------------- Iteration      1(  13)  ---------------------------------------


    POTLOK:  cpu time    0.0409: real time    0.0421
    SETDIJ:  cpu time    0.6114: real time    0.6129
     EDDAV:  cpu time    4.3719: real time    4.3854
       DOS:  cpu time    0.0007: real time    0.0007
    CHARGE:  cpu time    0.0515: real time    0.0516
    MIXING:  cpu time    0.0018: real time    0.0018
    --------------------------------------------
      LOOP:  cpu time    5.0781: real time    5.0944

 eigenvalue-minimisations  :  3208
 total energy-change (2. order) :-0.4529451E-03  (-0.7009200E-04)
 number of electron     861.9999043 magnetization       1.9809864
 augmentation part       20.7421382 magnetization       0.0903231

 Broyden mixing:
  rms(total) = 0.36793E-02    rms(broyden)= 0.36787E-02
  rms(prec ) = 0.42644E-02
  weight for this iteration     100.00

 eigenvalues of (default mixing * dielectric matrix)
  average eigenvalue GAMMA=   1.3217
  2.5353  2.2763  1.7946  1.0547  0.8264  0.7800  0.6165  0.6895

 Free energy of the ion-electron system (eV)
  ---------------------------------------------------
  alpha Z        PSCENC =      3094.29412155
  Ewald energy   TEWEN  =    -37390.26065066
  -Hartree energ DENC   =     -2954.91441626
  -exchange      EXHF   =         0.00000000
  -V(xc)+E(xc)   XCENC  =      3176.75124874
  PAW double counting   =     14280.49361317   -14555.80899896
  entropy T*S    EENTRO =         0.00000000
  eigenvalues    EBANDS =       660.73372469
  atomic energy  EATOM  =     31754.39923918
  Solvation  Ediel_sol  =         0.00000000
  ---------------------------------------------------
  free energy    TOTEN  =     -1934.31211856 eV

  energy without entropy =    -1934.31211856  energy(sigma->0) =    -1934.31211856


--------------------------------------------------------------------------------------------------------




--------------------------------------- Iteration      1(  14)  ---------------------------------------


    POTLOK:  cpu time    0.0408: real time    0.0411
    SETDIJ:  cpu time    0.6116: real time    0.6130
     EDDAV:  cpu time    4.3941: real time    4.4055
       DOS:  cpu time    0.0007: real time    0.0007
    CHARGE:  cpu time    0.0517: real time    0.0518
    MIXING:  cpu time    0.0022: real time    0.0022
    --------------------------------------------
      LOOP:  cpu time    5.1010: real time    5.1142

 eigenvalue-minimisations  :  3200
 total energy-change (2. order) :-0.9250081E-04  (-0.1513156E-04)
 number of electron     861.9999043 magnetization       1.9959046
 augmentation part       20.7420562 magnetization       0.1048998

 Broyden mixing:
  rms(total) = 0.19066E-02    rms(broyden)= 0.19064E-02
  rms(prec ) = 0.22426E-02
  weight for this iteration     100.00

 eigenvalues of (default mixing * dielectric matrix)
  average eigenvalue GAMMA=   1.3451
  2.6248  2.3797  1.9161  1.1526  1.1526  0.8363  0.7562  0.6176  0.6703

 Free energy of the ion-electron system (eV)
  ---------------------------------------------------
  alpha Z        PSCENC =      3094.29412155
  Ewald energy   TEWEN  =    -37390.26065066
  -Hartree energ DENC   =     -2955.13744147
  -exchange      EXHF   =         0.00000000
  -V(xc)+E(xc)   XCENC  =      3176.77183691
  PAW double counting   =     14280.26130021   -14555.57781084
  entropy T*S    EENTRO =         0.00000000
  eigenvalues    EBANDS =       660.93719406
  atomic energy  EATOM  =     31754.39923918
  Solvation  Ediel_sol  =         0.00000000
  ---------------------------------------------------
  free energy    TOTEN  =     -1934.31221106 eV

  energy without entropy =    -1934.31221106  energy(sigma->0) =    -1934.31221106


--------------------------------------------------------------------------------------------------------




--------------------------------------- Iteration      1(  15)  ---------------------------------------


    POTLOK:  cpu time    0.0406: real time    0.0434
    SETDIJ:  cpu time    0.6117: real time    0.6133
     EDDAV:  cpu time    3.5749: real time    3.5867
       DOS:  cpu time    0.0008: real time    0.0007
    CHARGE:  cpu time    0.0526: real time    0.0527
    MIXING:  cpu time    0.0027: real time    0.0027
    --------------------------------------------
      LOOP:  cpu time    4.2831: real time    4.2996

 eigenvalue-minimisations  :  2480
 total energy-change (2. order) :-0.2156131E-04  (-0.2854560E-05)
 number of electron     861.9999043 magnetization       2.0000997
 augmentation part       20.7419512 magnetization       0.1091659

 Broyden mixing:
  rms(total) = 0.65989E-03    rms(broyden)= 0.65979E-03
  rms(prec ) = 0.77540E-03
  weight for this iteration     100.00

 eigenvalues of (default mixing * dielectric matrix)
  average eigenvalue GAMMA=   1.3435
  2.7709  2.4333  1.9871  1.2101  1.2101  0.9887  0.8130  0.7378  0.6189  0.6657

 Free energy of the ion-electron system (eV)
  ---------------------------------------------------
  alpha Z        PSCENC =      3094.29412155
  Ewald energy   TEWEN  =    -37390.26065066
  -Hartree energ DENC   =     -2955.32055652
  -exchange      EXHF   =         0.00000000
  -V(xc)+E(xc)   XCENC  =      3176.78869970
  PAW double counting   =     14280.12427508   -14555.44426140
  entropy T*S    EENTRO =         0.00000000
  eigenvalues    EBANDS =       661.10690045
  atomic energy  EATOM  =     31754.39923918
  Solvation  Ediel_sol  =         0.00000000
  ---------------------------------------------------
  free energy    TOTEN  =     -1934.31223262 eV

  energy without entropy =    -1934.31223262  energy(sigma->0) =    -1934.31223262


--------------------------------------------------------------------------------------------------------




--------------------------------------- Iteration      1(  16)  ---------------------------------------


    POTLOK:  cpu time    0.0404: real time    0.0430
    SETDIJ:  cpu time    0.6112: real time    0.6126
     EDDAV:  cpu time    2.6343: real time    2.6408
       DOS:  cpu time    0.0007: real time    0.0007
    --------------------------------------------
      LOOP:  cpu time    3.2865: real time    3.2970

 eigenvalue-minimisations  :  1632
 total energy-change (2. order) :-0.2745517E-05  (-0.5581161E-06)
 number of electron     861.9999043 magnetization       2.0000997
 augmentation part       20.7419512 magnetization       0.1091659

 Free energy of the ion-electron system (eV)
  ---------------------------------------------------
  alpha Z        PSCENC =      3094.29412155
  Ewald energy   TEWEN  =    -37390.26065066
  -Hartree energ DENC   =     -2955.37376091
  -exchange      EXHF   =         0.00000000
  -V(xc)+E(xc)   XCENC  =      3176.79364223
  PAW double counting   =     14280.03374624   -14555.35490220
  entropy T*S    EENTRO =         0.00000000
  eigenvalues    EBANDS =       661.15632921
  atomic energy  EATOM  =     31754.39923918
  Solvation  Ediel_sol  =         0.00000000
  ---------------------------------------------------
  free energy    TOTEN  =     -1934.31223537 eV

  energy without entropy =    -1934.31223537  energy(sigma->0) =    -1934.31223537


--------------------------------------------------------------------------------------------------------




 average (electrostatic) potential at core
  the test charge radii are     0.7089  0.6991
  (the norm of the test charge is              1.0000)
       1 -59.1146       2 -45.5062       3 -45.4480       4 -45.3290       5 -45.4326
       6 -45.4447       7 -45.8351       8 -45.2989       9 -45.4187      10 -45.4607
      11 -45.4607      12 -45.4315      13 -45.4610      14 -45.4328      15 -45.5171
      16 -45.5064      17 -45.4587      18 -45.4272      19 -45.4142      20 -45.4216
      21 -45.3109      22 -45.2240      23 -45.4605      24 -45.4411      25 -45.3764
[...]
    4ORBIT:  cpu time    0.0000: real time    0.0000
 


 total charge     
 
# of ion       s       p       d       tot
------------------------------------------
    1        1.205   2.706   0.000   3.911
    2        0.830   1.755   0.000   2.585
    3        0.830   1.755   0.000   2.585
    4        0.831   1.755   0.000   2.586
    5        0.829   1.748   0.000   2.578
    6        0.830   1.755   0.000   2.585
    7        0.824   1.716   0.000   2.541
    8        0.833   1.763   0.000   2.596
    9        0.831   1.761   0.000   2.592
   10        0.831   1.758   0.000   2.589
   11        0.830   1.754   0.000   2.584
   12        0.831   1.756   0.000   2.587
   13        0.830   1.754   0.000   2.584
   14        0.831   1.756   0.000   2.587
   15        0.830   1.754   0.000   2.585
   16        0.830   1.756   0.000   2.586
   17        0.831   1.756   0.000   2.586
   18        0.831   1.755   0.000   2.586
   19        0.831   1.756   0.000   2.587
   20        0.830   1.755   0.000   2.586
   21        0.831   1.756   0.000   2.587
   22        0.833   1.754   0.000   2.588
   23        0.831   1.756   0.000   2.586
   24        0.831   1.757   0.000   2.588
   25        0.832   1.761   0.000   2.593
   26        0.830   1.753   0.000   2.583
   27        0.829   1.748   0.000   2.578
   28        0.831   1.756   0.000   2.587
   29        0.830   1.756   0.000   2.586
   30        0.830   1.748   0.000   2.578
   31        0.830   1.756   0.000   2.586
   32        0.832   1.766   0.000   2.599
   33        0.830   1.748   0.000   2.578
   34        0.831   1.755   0.000   2.586
   35        0.830   1.749   0.000   2.579
   36        0.831   1.760   0.000   2.591
   37        0.830   1.755   0.000   2.586
   38        0.830   1.754   0.000   2.584
   39        0.832   1.746   0.000   2.578
   40        0.830   1.756   0.000   2.586
   41        0.831   1.756   0.000   2.587
   42        0.830   1.756   0.000   2.587
   43        0.830   1.754   0.000   2.584
   44        0.831   1.758   0.000   2.590
   45        0.830   1.752   0.000   2.582
   46        0.830   1.756   0.000   2.586
   47        0.830   1.748   0.000   2.578
   48        0.830   1.754   0.000   2.585
   49        0.830   1.756   0.000   2.586
   50        0.830   1.752   0.000   2.582
   51        0.831   1.760   0.000   2.590
   52        0.843   1.767   0.000   2.610
   53        0.831   1.756   0.000   2.587
   54        0.831   1.756   0.000   2.587
   55        0.831   1.758   0.000   2.589
   56        0.830   1.753   0.000   2.583
   57        0.831   1.756   0.000   2.586
   58        0.831   1.756   0.000   2.587
   59        0.831   1.756   0.000   2.587
   60        0.831   1.756   0.000   2.587
   61        0.831   1.757   0.000   2.587
   62        0.830   1.754   0.000   2.585
   63        0.831   1.756   0.000   2.587
   64        0.825   1.716   0.000   2.541
   65        0.833   1.762   0.000   2.596
   66        0.829   1.748   0.000   2.578
   67        0.830   1.755   0.000   2.585
   68        0.829   1.748   0.000   2.577
   69        0.830   1.754   0.000   2.584
   70        0.831   1.761   0.000   2.592
   71        0.831   1.758   0.000   2.589
   72        0.831   1.756   0.000   2.587
   73        0.831   1.758   0.000   2.589
   74        0.831   1.757   0.000   2.587
   75        0.831   1.758   0.000   2.589
   76        0.831   1.756   0.000   2.587
   77        0.831   1.758   0.000   2.589
   78        0.831   1.761   0.000   2.592
   79        0.830   1.753   0.000   2.582
   80        0.830   1.754   0.000   2.585
   81        0.833   1.762   0.000   2.595
   82        0.831   1.756   0.000   2.587
   83        0.831   1.757   0.000   2.587
   84        0.830   1.754   0.000   2.585
   85        0.831   1.756   0.000   2.587
   86        0.831   1.756   0.000   2.587
   87        0.834   1.757   0.000   2.591
   88        0.831   1.756   0.000   2.587
   89        0.831   1.755   0.000   2.586
   90        0.831   1.756   0.000   2.586
   91        0.831   1.758   0.000   2.589
   92        0.832   1.762   0.000   2.593
   93        0.830   1.753   0.000   2.583
   94        0.833   1.766   0.000   2.599
   95        0.830   1.750   0.000   2.580
   96        0.834   1.774   0.000   2.608
   97        0.830   1.749   0.000   2.579
   98        0.831   1.757   0.000   2.588
   99        0.831   1.757   0.000   2.588
  100        0.831   1.761   0.000   2.592
  101        0.830   1.755   0.000   2.585
  102        0.829   1.749   0.000   2.578
  103        0.830   1.755   0.000   2.585
  104        0.825   1.716   0.000   2.541
  105        0.829   1.748   0.000   2.578
  106        0.832   1.764   0.000   2.596
  107        0.837   1.736   0.000   2.573
  108        0.831   1.760   0.000   2.590
  109        0.831   1.756   0.000   2.587
  110        0.830   1.754   0.000   2.584
  111        0.831   1.760   0.000   2.591
  112        0.832   1.749   0.000   2.581
  113        0.830   1.756   0.000   2.587
  114        0.831   1.756   0.000   2.586
  115        0.830   1.756   0.000   2.587
  116        0.830   1.755   0.000   2.586
  117        0.830   1.755   0.000   2.585
  118        0.831   1.756   0.000   2.587
  119        0.831   1.757   0.000   2.587
  120        0.832   1.755   0.000   2.586
  121        0.830   1.756   0.000   2.586
  122        0.831   1.757   0.000   2.588
  123        0.830   1.756   0.000   2.587
  124        0.830   1.755   0.000   2.585
  125        0.831   1.754   0.000   2.585
  126        0.833   1.753   0.000   2.586
  127        0.832   1.761   0.000   2.592
  128        0.830   1.752   0.000   2.582
  129        0.830   1.754   0.000   2.584
  130        0.831   1.756   0.000   2.586
  131        0.830   1.754   0.000   2.584
  132        0.831   1.756   0.000   2.587
  133        0.830   1.756   0.000   2.586
  134        0.832   1.760   0.000   2.592
  135        0.831   1.756   0.000   2.587
  136        0.830   1.756   0.000   2.586
  137        0.830   1.755   0.000   2.585
  138        0.830   1.756   0.000   2.586
  139        0.830   1.755   0.000   2.585
  140        0.831   1.756   0.000   2.586
  141        0.830   1.756   0.000   2.586
  142        0.831   1.754   0.000   2.585
  143        0.832   1.760   0.000   2.592
  144        0.831   1.757   0.000   2.587
  145        0.831   1.757   0.000   2.587
  146        0.830   1.755   0.000   2.585
  147        0.831   1.756   0.000   2.587
  148        0.830   1.754   0.000   2.585
  149        0.831   1.761   0.000   2.592
  150        0.833   1.751   0.000   2.584
  151        0.830   1.754   0.000   2.585
  152        0.830   1.756   0.000   2.586
  153        0.830   1.754   0.000   2.584
  154        0.831   1.756   0.000   2.587
  155        0.830   1.754   0.000   2.584
  156        0.831   1.756   0.000   2.587
  157        0.830   1.755   0.000   2.586
  158        0.831   1.756   0.000   2.586
  159        0.830   1.755   0.000   2.585
  160        0.830   1.754   0.000   2.584
  161        0.831   1.756   0.000   2.587
  162        0.830   1.755   0.000   2.585
  163        0.831   1.755   0.000   2.586
  164        0.830   1.756   0.000   2.587
  165        0.831   1.757   0.000   2.587
  166        0.831   1.759   0.000   2.590
  167        0.831   1.755   0.000   2.586
  168        0.831   1.756   0.000   2.586
  169        0.831   1.757   0.000   2.588
  170        0.831   1.755   0.000   2.585
  171        0.833   1.748   0.000   2.581
  172        0.831   1.756   0.000   2.587
  173        0.830   1.754   0.000   2.585
  174        0.831   1.760   0.000   2.591
  175        0.830   1.752   0.000   2.582
  176        0.830   1.754   0.000   2.584
  177        0.831   1.756   0.000   2.587
  178        0.830   1.756   0.000   2.586
  179        0.830   1.755   0.000   2.586
  180        0.830   1.756   0.000   2.587
  181        0.831   1.757   0.000   2.587
  182        0.831   1.758   0.000   2.589
  183        0.832   1.755   0.000   2.586
  184        0.831   1.761   0.000   2.592
  185        0.840   1.750   0.000   2.589
  186        0.830   1.753   0.000   2.583
  187        0.831   1.756   0.000   2.586
  188        0.830   1.756   0.000   2.587
  189        0.833   1.755   0.000   2.588
  190        0.831   1.756   0.000   2.586
  191        0.830   1.756   0.000   2.586
  192        0.830   1.755   0.000   2.585
  193        0.830   1.755   0.000   2.586
  194        0.831   1.756   0.000   2.587
  195        0.830   1.753   0.000   2.584
  196        0.832   1.747   0.000   2.580
  197        0.831   1.759   0.000   2.590
  198        0.830   1.752   0.000   2.582
  199        0.831   1.757   0.000   2.587
  200        0.831   1.757   0.000   2.587
  201        0.830   1.755   0.000   2.586
  202        0.831   1.757   0.000   2.587
  203        0.830   1.753   0.000   2.584
  204        0.831   1.756   0.000   2.586
  205        0.830   1.755   0.000   2.585
  206        0.831   1.756   0.000   2.587
  207        0.831   1.756   0.000   2.587
  208        0.830   1.755   0.000   2.585
  209        0.831   1.756   0.000   2.587
  210        0.830   1.755   0.000   2.586
  211        0.832   1.760   0.000   2.592
  212        0.831   1.757   0.000   2.588
  213        0.832   1.761   0.000   2.593
  214        0.831   1.757   0.000   2.587
  215        0.830   1.756   0.000   2.587
--------------------------------------------------
tot        178.993 378.296   0.000 557.289
 


 magnetization (x)
 
# of ion       s       p       d       tot
------------------------------------------
    1       -0.001   0.001   0.000  -0.000
    2       -0.000  -0.000   0.000  -0.000
    3        0.000   0.000   0.000   0.000
    4       -0.000  -0.001   0.000  -0.001
    5       -0.000  -0.000   0.000  -0.000
    6        0.000   0.000   0.000   0.000
    7       -0.000   0.001   0.000   0.001
    8        0.000   0.000   0.000   0.000
    9        0.000   0.000   0.000   0.000
   10        0.000   0.000   0.000   0.000
   11       -0.000  -0.000   0.000  -0.000
   12        0.000   0.001   0.000   0.002
   13       -0.000  -0.000   0.000  -0.000
   14        0.000   0.001   0.000   0.002
   15       -0.000   0.000   0.000   0.000
   16        0.000   0.001   0.000   0.001
   17       -0.000  -0.000   0.000  -0.000
   18        0.000   0.001   0.000   0.001
   19       -0.000  -0.000   0.000  -0.000
   20       -0.000   0.000   0.000   0.000
   21       -0.000  -0.001   0.000  -0.001
   22        0.005   0.019   0.000   0.024
   23       -0.000  -0.000   0.000  -0.000
   24        0.000   0.002   0.000   0.002
   25        0.001   0.003   0.000   0.004
   26        0.000   0.000   0.000   0.000
   27       -0.000  -0.000   0.000  -0.000
   28        0.000  -0.000   0.000  -0.000
   29        0.000   0.001   0.000   0.001
   30        0.001   0.004   0.000   0.005
   31        0.000   0.001   0.000   0.001
   32       -0.002  -0.005   0.000  -0.007
   33        0.001   0.004   0.000   0.005
   34       -0.002  -0.005   0.000  -0.007
   35        0.001   0.004   0.000   0.005
   36       -0.000  -0.001   0.000  -0.001
   37        0.000   0.001   0.000   0.001
   38       -0.000  -0.001   0.000  -0.001
   39        0.004   0.019   0.000   0.023
   40       -0.000  -0.000   0.000  -0.000
   41        0.000   0.002   0.000   0.002
   42       -0.000  -0.000   0.000  -0.000
   43       -0.000   0.000   0.000   0.000
   44        0.001   0.003   0.000   0.004
   45        0.000   0.000   0.000   0.000
   46       -0.002  -0.005   0.000  -0.007
   47        0.001   0.004   0.000   0.005
   48       -0.000  -0.001   0.000  -0.001
   49        0.000   0.001   0.000   0.001
   50       -0.002  -0.005   0.000  -0.007
   51       -0.000  -0.001   0.000  -0.001
   52        0.038   0.278   0.000   0.316
   53        0.000   0.000   0.000   0.000
   54        0.000   0.000   0.000   0.000
   55        0.000   0.000   0.000   0.000
   56       -0.000  -0.001   0.000  -0.001
   57        0.000   0.000   0.000   0.000
   58        0.000  -0.000   0.000  -0.000
   59        0.000   0.000   0.000   0.000
   60        0.000  -0.000   0.000  -0.000
   61        0.000   0.000   0.000   0.000
   62        0.000   0.000   0.000   0.000
   63        0.000   0.000   0.000   0.000
   64        0.000   0.001   0.000   0.001
   65        0.000   0.000   0.000   0.000
   66       -0.000  -0.000   0.000  -0.000
   67        0.000   0.000   0.000   0.000
   68       -0.000  -0.000   0.000  -0.000
   69        0.000   0.000   0.000   0.000
   70        0.000   0.000   0.000   0.000
   71        0.000   0.000   0.000   0.000
   72       -0.000  -0.000   0.000  -0.000
   73        0.000  -0.000   0.000   0.000
   74       -0.000  -0.000   0.000  -0.000
   75        0.000  -0.000   0.000   0.000
   76       -0.000  -0.000   0.000  -0.000
   77        0.000  -0.000   0.000   0.000
   78        0.000   0.000   0.000   0.000
   79       -0.000  -0.001   0.000  -0.001
   80        0.000   0.000   0.000   0.000
   81        0.000   0.000   0.000   0.000
   82        0.000  -0.000   0.000  -0.000
   83        0.000   0.000   0.000   0.000
   84        0.000   0.000   0.000   0.000
   85        0.000   0.000   0.000   0.000
   86       -0.000  -0.001   0.000  -0.001
   87        0.005   0.019   0.000   0.024
   88       -0.000  -0.000   0.000  -0.000
   89       -0.000   0.000   0.000   0.000
   90       -0.000  -0.000   0.000  -0.000
   91        0.000   0.002   0.000   0.002
   92        0.001   0.003   0.000   0.004
   93        0.000   0.000   0.000   0.000
   94       -0.002  -0.005   0.000  -0.007
   95        0.001   0.004   0.000   0.005
   96       -0.002  -0.005   0.000  -0.007
   97        0.001   0.004   0.000   0.005
   98       -0.000  -0.001   0.000  -0.001
   99        0.000   0.001   0.000   0.001
  100       -0.000  -0.001   0.000  -0.001
  101        0.000   0.001   0.000   0.001
  102       -0.000  -0.000   0.000  -0.000
  103        0.000   0.000   0.000   0.000
  104        0.000   0.001   0.000   0.001
  105       -0.000  -0.000   0.000  -0.000
  106       -0.002  -0.009   0.000  -0.012
  107        0.039   0.293   0.000   0.331
  108       -0.003  -0.010   0.000  -0.012
  109       -0.000  -0.000   0.000  -0.000
  110        0.000   0.000   0.000   0.000
  111        0.000   0.002   0.000   0.003
  112        0.004   0.018   0.000   0.022
  113       -0.000  -0.000   0.000  -0.000
  114        0.000   0.002   0.000   0.002
  115       -0.000  -0.000   0.000  -0.000
  116        0.000   0.002   0.000   0.002
  117       -0.000  -0.000   0.000  -0.001
  118        0.001   0.008   0.000   0.009
  119       -0.000  -0.001   0.000  -0.001
  120        0.001   0.008   0.000   0.008
  121       -0.000  -0.000   0.000  -0.000
  122        0.000   0.002   0.000   0.002
  123       -0.000  -0.000   0.000  -0.000
  124       -0.000   0.000   0.000   0.000
  125       -0.000  -0.001   0.000  -0.001
  126        0.005   0.019   0.000   0.024
  127        0.001   0.003   0.000   0.004
  128        0.000   0.000   0.000   0.000
  129       -0.000  -0.000   0.000  -0.000
  130        0.000   0.001   0.000   0.001
  131       -0.000   0.000   0.000   0.000
  132        0.000   0.001   0.000   0.002
  133        0.000   0.001   0.000   0.001
  134       -0.000   0.002   0.000   0.002
  135       -0.000  -0.000   0.000  -0.000
  136        0.000   0.000   0.000   0.000
  137       -0.000  -0.000   0.000  -0.000
  138        0.000   0.000   0.000   0.000
  139       -0.000  -0.000   0.000  -0.000
  140        0.000   0.000   0.000   0.000
  141       -0.000  -0.000   0.000  -0.000
  142       -0.000   0.000   0.000   0.000
  143       -0.000   0.002   0.000   0.002
  144        0.000   0.001   0.000   0.002
  145       -0.000  -0.000   0.000  -0.000
  146        0.000   0.000   0.000   0.000
  147       -0.000  -0.000   0.000  -0.000
  148        0.000   0.000   0.000   0.000
  149        0.000   0.002   0.000   0.002
  150        0.004   0.018   0.000   0.022
  151       -0.000   0.000   0.000   0.000
  152        0.000   0.001   0.000   0.001
  153       -0.000  -0.000   0.000  -0.000
  154        0.000   0.001   0.000   0.001
  155       -0.000  -0.000   0.000  -0.000
  156        0.000   0.001   0.000   0.002
  157       -0.000  -0.000   0.000  -0.000
  158        0.000   0.001   0.000   0.001
  159        0.000   0.000   0.000   0.000
  160       -0.000  -0.000   0.000  -0.000
  161        0.000   0.001   0.000   0.001
  162        0.000  -0.000   0.000  -0.000
  163        0.001   0.008   0.000   0.009
  164       -0.000  -0.000   0.000  -0.000
  165        0.000   0.002   0.000   0.002
  166       -0.000  -0.001   0.000  -0.001
  167        0.001   0.007   0.000   0.008
  168       -0.000  -0.000   0.000  -0.000
  169        0.000   0.002   0.000   0.002
  170       -0.000  -0.001   0.000  -0.001
  171        0.004   0.019   0.000   0.023
  172       -0.000  -0.000   0.000  -0.000
  173       -0.000   0.000   0.000   0.000
  174        0.001   0.003   0.000   0.004
  175        0.000   0.000   0.000   0.000
  176       -0.000  -0.000   0.000  -0.001
  177        0.001   0.008   0.000   0.009
  178       -0.000  -0.000   0.000  -0.000
  179        0.000   0.002   0.000   0.002
  180       -0.000  -0.000   0.000  -0.000
  181        0.000   0.002   0.000   0.002
  182       -0.000  -0.001   0.000  -0.001
  183        0.001   0.008   0.000   0.008
  184       -0.002  -0.009   0.000  -0.012
  185        0.039   0.286   0.000   0.324
  186       -0.000  -0.000   0.000  -0.001
  187        0.000   0.002   0.000   0.002
  188       -0.000  -0.000   0.000  -0.000
  189        0.004   0.017   0.000   0.021
  190        0.000   0.001   0.000   0.001
  191       -0.000  -0.000   0.000  -0.000
  192       -0.000   0.000   0.000   0.000
  193       -0.000  -0.000   0.000  -0.000
  194        0.000   0.002   0.000   0.002
  195       -0.000  -0.001   0.000  -0.001
  196        0.005   0.019   0.000   0.023
  197        0.001   0.004   0.000   0.004
  198        0.000   0.000   0.000   0.000
  199        0.000  -0.000   0.000  -0.000
  200        0.000   0.000   0.000   0.000
  201       -0.000   0.000   0.000   0.000
  202        0.000  -0.000   0.000  -0.000
  203       -0.000  -0.001   0.000  -0.001
  204        0.000   0.000   0.000   0.000
  205        0.000   0.000   0.000   0.000
  206        0.000   0.000   0.000   0.000
  207       -0.000  -0.000   0.000  -0.000
  208        0.000   0.000   0.000   0.000
  209       -0.000  -0.000   0.000  -0.000
  210        0.000   0.000   0.000   0.000
  211       -0.000   0.002   0.000   0.002
  212        0.000   0.001   0.000   0.002
  213        0.000   0.002   0.000   0.002
  214        0.000   0.000   0.000   0.000
  215        0.000   0.000   0.000   0.000
--------------------------------------------------
tot          0.155   1.098   0.000   1.254
 

 total amount of memory used by VASP MPI-rank0    56899. kBytes
=======================================================================

   base      :      30000. kBytes
   nonlr-proj:       5757. kBytes
   fftplans  :       1766. kBytes
   grid      :       4371. kBytes
   one-center:         55. kBytes
   wavefun   :      14950. kBytes
 
  
  
 General timing and accounting informations for this job:
 ========================================================
  
                  Total CPU time used (sec):       92.435
                            User time (sec):       89.086
                          System time (sec):        3.349
                         Elapsed time (sec):       98.326
  
                   Maximum memory used (kb):      341872.
                   Average memory used (kb):           0.
  
                          Minor page faults:        68799
                          Major page faults:           14
                 Voluntary context switches:         4167
