       N       E                     dE             d eps       ncg     rms          ort
SDA:   1    -0.193206848140E+04   -0.19321E+04   -0.14311E+00   648   0.716E+00 0.000E+00
DMP:   2    -0.193218957939E+04   -0.12110E+00   -0.11553E+00   648   0.321E+00 0.494E+00
DMP:   3    -0.193227688237E+04   -0.87303E-01   -0.48203E-01   648   0.890E-01 0.293E+00
DMP:   4    -0.193230926026E+04   -0.32378E-01   -0.14324E-01   648   0.302E-01 0.798E-01
DMP:   5    -0.193231817816E+04   -0.89179E-02   -0.73156E-02   648   0.286E-01 0.153E-01
DMP:   6    -0.193232395777E+04   -0.57796E-02   -0.72043E-02   648   0.257E-01 0.198E-01
DMP:   7    -0.193232995038E+04   -0.59926E-02   -0.53276E-02   648   0.147E-01 0.230E-01
DMP:   8    -0.193233406757E+04   -0.41172E-02   -0.26609E-02   648   0.607E-02 0.139E-01
DMP:   9    -0.193233601315E+04   -0.19456E-02   -0.12271E-02   648   0.316E-02 0.573E-02
DMP:  10    -0.193233696938E+04   -0.95623E-03   -0.77624E-03   648   0.224E-02 0.315E-02
DMP:  11    -0.193233762972E+04   -0.66034E-03   -0.52827E-03   648   0.132E-02 0.254E-02
DMP:  12    -0.193233808080E+04   -0.45108E-03   -0.30585E-03   648   0.623E-03 0.174E-02
DMP:  13    -0.193233833973E+04   -0.25893E-03   -0.16092E-03   648   0.299E-03 0.973E-03
DMP:  14    -0.193233847915E+04   -0.13942E-03   -0.95660E-04   648   0.202E-03 0.532E-03
DMP:  15    -0.193233856558E+04   -0.86423E-04   -0.68687E-04   648   0.161E-03 0.352E-03
DMP:  16    -0.193233862839E+04   -0.62817E-04   -0.52407E-04   648   0.123E-03 0.268E-03
DMP:  17    -0.193233867542E+04   -0.47026E-04   -0.38961E-04   648   0.889E-04 0.204E-03
DMP:  18    -0.193233870957E+04   -0.34152E-04   -0.27838E-04   648   0.609E-04 0.151E-03
DMP:  19    -0.193233873356E+04   -0.23989E-04   -0.19858E-04   648   0.420E-04 0.110E-03
DMP:  20    -0.193233875037E+04   -0.16815E-04   -0.14228E-04   648   0.289E-04 0.813E-04
DMP:  21    -0.193233876214E+04   -0.11760E-04   -0.10289E-04   648   0.204E-04 0.598E-04
DMP:  22    -0.193233877041E+04   -0.82755E-05   -0.76912E-05   648   0.155E-04 0.443E-04
   1 F= -.19323388E+04 E0= -.19323388E+04  d E =-.193234E+04  mag=     2.0000
       N       E                     dE             d eps       ncg     rms          ort
SDA:   1    -0.191279530518E+04    0.19543E+02   -0.74046E+01   648   0.370E+02 0.000E+00
DMP:   2    -0.191933706474E+04   -0.65418E+01   -0.74829E+01   648   0.226E+02 0.284E+02
DMP:   3    -0.192538946160E+04   -0.60524E+01   -0.43472E+01   648   0.969E+01 0.232E+02
DMP:   4    -0.192862667814E+04   -0.32372E+01   -0.17985E+01   648   0.342E+01 0.107E+02
DMP:   5    -0.192986010010E+04   -0.12334E+01   -0.64058E+00   648   0.144E+01 0.340E+01
DMP:   6    -0.193027022483E+04   -0.41012E+00   -0.25060E+00   648   0.768E+00 0.934E+00
DMP:   7    -0.193042151900E+04   -0.15129E+00   -0.10566E+00   648   0.382E+00 0.282E+00
DMP:   8    -0.193047897361E+04   -0.57455E-01   -0.43785E-01   648   0.187E+00 0.608E-01
DMP:   9    -0.193050189346E+04   -0.22920E-01   -0.26821E-01   648   0.124E+00 0.198E-01
DMP:  10    -0.193052048487E+04   -0.18591E-01   -0.24111E-01   648   0.905E-01 0.579E-01
DMP:  11    -0.193053988948E+04   -0.19405E-01   -0.19102E-01   648   0.553E-01 0.774E-01
DMP:  12    -0.193055524367E+04   -0.15354E-01   -0.11728E-01   648   0.270E-01 0.608E-01
DMP:  13    -0.193056427988E+04   -0.90362E-02   -0.58101E-02   648   0.114E-01 0.340E-01
DMP:  14    -0.193056852376E+04   -0.42439E-02   -0.25843E-02   648   0.501E-02 0.152E-01
DMP:  15    -0.193057032343E+04   -0.17997E-02   -0.12476E-02   648   0.281E-02 0.659E-02
DMP:  16    -0.193057118003E+04   -0.85660E-03   -0.75490E-03   648   0.192E-02 0.357E-02
DMP:  17    -0.193057171152E+04   -0.53149E-03   -0.55347E-03   648   0.143E-02 0.258E-02
DMP:  18    -0.193057211279E+04   -0.40127E-03   -0.44985E-03   648   0.114E-02 0.214E-02
DMP:  19    -0.193057244576E+04   -0.33297E-03   -0.39120E-03   648   0.974E-03 0.189E-02
DMP:  20    -0.193057273912E+04   -0.29336E-03   -0.35615E-03   648   0.881E-03 0.173E-02
DMP:  21    -0.193057300710E+04   -0.26798E-03   -0.32939E-03   648   0.808E-03 0.161E-02
DMP:  22    -0.193057325342E+04   -0.24632E-03   -0.30391E-03   648   0.740E-03 0.150E-02
DMP:  23    -0.193057347818E+04   -0.22476E-03   -0.27944E-03   648   0.680E-03 0.138E-02
DMP:  24    -0.193057368252E+04   -0.20434E-03   -0.25583E-03   648   0.623E-03 0.126E-02
DMP:  25    -0.193057386766E+04   -0.18514E-03   -0.23167E-03   648   0.560E-03 0.115E-02
DMP:  26    -0.193057403345E+04   -0.16579E-03   -0.20651E-03   648   0.494E-03 0.104E-02
DMP:  27    -0.193057417934E+04   -0.14589E-03   -0.18138E-03   648   0.429E-03 0.921E-03
DMP:  28    -0.193057430566E+04   -0.12632E-03   -0.15740E-03   648   0.368E-03 0.807E-03
DMP:  29    -0.193057441365E+04   -0.10799E-03   -0.13582E-03   648   0.315E-03 0.700E-03
DMP:  30    -0.193057450546E+04   -0.91809E-04   -0.11739E-03   648   0.273E-03 0.605E-03
DMP:  31    -0.193057458373E+04   -0.78270E-04   -0.10213E-03   648   0.238E-03 0.524E-03
DMP:  32    -0.193057465098E+04   -0.67253E-04   -0.89730E-04   648   0.211E-03 0.457E-03
DMP:  33    -0.193057470939E+04   -0.58412E-04   -0.79242E-04   648   0.188E-03 0.402E-03
DMP:  34    -0.193057476036E+04   -0.50968E-04   -0.69693E-04   648   0.165E-03 0.354E-03
DMP:  35    -0.193057480455E+04   -0.44192E-04   -0.60243E-04   648   0.141E-03 0.309E-03
DMP:  36    -0.193057484207E+04   -0.37519E-04   -0.50846E-04   648   0.117E-03 0.264E-03
DMP:  37    -0.193057487314E+04   -0.31069E-04   -0.41518E-04   648   0.932E-04 0.220E-03
DMP:  38    -0.193057489810E+04   -0.24964E-04   -0.33075E-04   648   0.729E-04 0.178E-03
DMP:  39    -0.193057491783E+04   -0.19730E-04   -0.25878E-04   648   0.562E-04 0.141E-03
DMP:  40    -0.193057493328E+04   -0.15450E-04   -0.20203E-04   648   0.439E-04 0.110E-03
DMP:  41    -0.193057494544E+04   -0.12160E-04   -0.15612E-04   648   0.337E-04 0.853E-04
DMP:  42    -0.193057495495E+04   -0.95021E-05   -0.12097E-04   648   0.265E-04 0.655E-04
DMP:  43    -0.193057496236E+04   -0.74167E-05   -0.93301E-05   648   0.206E-04 0.502E-04
   2 F= -.19305750E+04 E0= -.19305750E+04  d E =0.176381E+01  mag=     2.0000
       N       E                     dE             d eps       ncg     rms          ort
SDA:   1    -0.192107765324E+04    0.94973E+01   -0.48804E+01   648   0.244E+02 0.000E+00
DMP:   2    -0.192536269722E+04   -0.42850E+01   -0.48169E+01   648   0.145E+02 0.184E+02
DMP:   3    -0.192922495660E+04   -0.38623E+01   -0.27033E+01   648   0.597E+01 0.145E+02
DMP:   4    -0.193122201694E+04   -0.19971E+01   -0.10940E+01   648   0.211E+01 0.646E+01
DMP:   5    -0.193197111652E+04   -0.74910E+00   -0.39983E+00   648   0.941E+00 0.204E+01
DMP:   6    -0.193223035831E+04   -0.25924E+00   -0.16421E+00   648   0.506E+00 0.606E+00
DMP:   7    -0.193233109255E+04   -0.10073E+00   -0.68556E-01   648   0.242E+00 0.194E+00
DMP:   8    -0.193236817121E+04   -0.37079E-01   -0.26815E-01   648   0.118E+00 0.319E-01
DMP:   9    -0.193238178318E+04   -0.13612E-01   -0.16658E-01   648   0.813E-01 0.385E-02
DMP:  10    -0.193239344272E+04   -0.11660E-01   -0.15577E-01   648   0.602E-01 0.341E-01
DMP:  11    -0.193240600715E+04   -0.12564E-01   -0.12037E-01   648   0.352E-01 0.482E-01
DMP:  12    -0.193241555854E+04   -0.95514E-02   -0.68613E-02   648   0.158E-01 0.356E-01
DMP:  13    -0.193242070202E+04   -0.51435E-02   -0.30523E-02   648   0.623E-02 0.174E-01
DMP:  14    -0.193242282262E+04   -0.21206E-02   -0.11818E-02   648   0.272E-02 0.615E-02
DMP:  15    -0.193242358904E+04   -0.76643E-03   -0.51646E-03   648   0.159E-02 0.191E-02
DMP:  16    -0.193242392511E+04   -0.33607E-03   -0.29216E-03   648   0.100E-02 0.884E-03
DMP:  17    -0.193242412142E+04   -0.19631E-03   -0.16873E-03   648   0.544E-03 0.577E-03
DMP:  18    -0.193242423619E+04   -0.11477E-03   -0.95194E-04   648   0.289E-03 0.360E-03
DMP:  19    -0.193242430409E+04   -0.67903E-04   -0.61509E-04   648   0.178E-03 0.250E-03
DMP:  20    -0.193242435031E+04   -0.46218E-04   -0.42458E-04   648   0.110E-03 0.198E-03
DMP:  21    -0.193242438226E+04   -0.31946E-04   -0.28508E-04   648   0.658E-04 0.148E-03
DMP:  22    -0.193242440308E+04   -0.20820E-04   -0.19678E-04   648   0.446E-04 0.104E-03
DMP:  23    -0.193242441705E+04   -0.13974E-04   -0.15017E-04   648   0.356E-04 0.761E-04
DMP:  24    -0.193242442764E+04   -0.10585E-04   -0.12840E-04   648   0.317E-04 0.625E-04
DMP:  25    -0.193242443675E+04   -0.91171E-05   -0.11679E-04   648   0.292E-04 0.563E-04
DMP:  26    -0.193242444509E+04   -0.83360E-05   -0.10755E-04   648   0.266E-04 0.524E-04
DMP:  27    -0.193242445275E+04   -0.76614E-05   -0.96349E-05   648   0.229E-04 0.487E-04
   3 F= -.19324245E+04 E0= -.19324245E+04  d E =-.856823E-01  mag=     2.0000
       N       E                     dE             d eps       ncg     rms          ort
SDA:   1    -0.193241381168E+04    0.10633E-01   -0.57136E-02   648   0.286E-01 0.000E+00
DMP:   2    -0.193241887939E+04   -0.50677E-02   -0.56892E-02   648   0.170E-01 0.221E-01
DMP:   3    -0.193242354961E+04   -0.46702E-02   -0.33894E-02   648   0.745E-02 0.183E-01
DMP:   4    -0.193242615873E+04   -0.26091E-02   -0.15452E-02   648   0.296E-02 0.917E-02
DMP:   5    -0.193242728443E+04   -0.11257E-02   -0.64161E-03   648   0.136E-02 0.355E-02
DMP:   6    -0.193242773613E+04   -0.45170E-03   -0.28496E-03   648   0.737E-03 0.132E-02
DMP:   7    -0.193242793025E+04   -0.19412E-03   -0.12552E-03   648   0.354E-03 0.526E-03
DMP:   8    -0.193242800842E+04   -0.78168E-04   -0.46447E-04   648   0.149E-03 0.160E-03
DMP:   9    -0.193242803433E+04   -0.25914E-04   -0.21006E-04   648   0.892E-04 0.305E-04
DMP:  10    -0.193242804814E+04   -0.13804E-04   -0.17004E-04   648   0.666E-04 0.355E-04
DMP:  11    -0.193242806171E+04   -0.13578E-04   -0.13905E-04   648   0.421E-04 0.527E-04
DMP:  12    -0.193242807307E+04   -0.11358E-04   -0.92050E-05   648   0.223E-04 0.457E-04
DMP:  13    -0.193242808046E+04   -0.73831E-05   -0.52916E-05   648   0.113E-04 0.292E-04
   4 F= -.19324281E+04 E0= -.19324281E+04  d E =-.893100E-01  mag=     2.0000
       N       E                     dE             d eps       ncg     rms          ort
SDA:   1    -0.192987736497E+04    0.25507E+01   -0.99472E+00   648   0.497E+01 0.000E+00
DMP:   2    -0.193075608474E+04   -0.87872E+00   -0.10076E+01   648   0.306E+01 0.381E+01
DMP:   3    -0.193157138769E+04   -0.81530E+00   -0.58277E+00   648   0.130E+01 0.311E+01
DMP:   4    -0.193200568247E+04   -0.43429E+00   -0.23662E+00   648   0.444E+00 0.142E+01
DMP:   5    -0.193216715527E+04   -0.16147E+00   -0.79555E-01   648   0.176E+00 0.428E+00
DMP:   6    -0.193221672136E+04   -0.49566E-01   -0.28693E-01   648   0.937E-01 0.958E-01
DMP:   7    -0.193223325987E+04   -0.16539E-01   -0.12192E-01   648   0.502E-01 0.208E-01
DMP:   8    -0.193223981105E+04   -0.65512E-02   -0.57426E-02   648   0.267E-01 0.387E-02
DMP:   9    -0.193224306255E+04   -0.32515E-02   -0.38494E-02   648   0.175E-01 0.339E-02
DMP:  10    -0.193224587284E+04   -0.28103E-02   -0.33561E-02   648   0.123E-01 0.862E-02
DMP:  11    -0.193224861665E+04   -0.27438E-02   -0.25557E-02   648   0.731E-02 0.105E-01
DMP:  12    -0.193225069318E+04   -0.20765E-02   -0.15104E-02   648   0.345E-02 0.790E-02
DMP:  13    -0.193225187027E+04   -0.11771E-02   -0.69942E-03   648   0.133E-02 0.416E-02
DMP:  14    -0.193225238710E+04   -0.51684E-03   -0.27040E-03   648   0.503E-03 0.163E-02
DMP:  15    -0.193225257733E+04   -0.19023E-03   -0.10475E-03   648   0.249E-03 0.528E-03
DMP:  16    -0.193225265095E+04   -0.73621E-04   -0.53349E-04   648   0.162E-03 0.201E-03
DMP:  17    -0.193225269111E+04   -0.40161E-04   -0.35418E-04   648   0.109E-03 0.132E-03
DMP:  18    -0.193225271920E+04   -0.28085E-04   -0.24897E-04   648   0.698E-04 0.105E-03
DMP:  19    -0.193225273927E+04   -0.20070E-04   -0.17288E-04   648   0.446E-04 0.805E-04
DMP:  20    -0.193225275335E+04   -0.14083E-04   -0.12354E-04   648   0.305E-04 0.602E-04
DMP:  21    -0.193225276355E+04   -0.10204E-04   -0.93980E-05   648   0.228E-04 0.466E-04
DMP:  22    -0.193225277139E+04   -0.78365E-05   -0.75064E-05   648   0.179E-04 0.377E-04
   5 F= -.19322528E+04 E0= -.19322528E+04  d E =0.175309E+00  mag=     2.0000
       N       E                     dE             d eps       ncg     rms          ort
SDA:   1    -0.193112641802E+04    0.11263E+01   -0.54547E+00   648   0.273E+01 0.000E+00
DMP:   2    -0.193160912839E+04   -0.48271E+00   -0.55361E+00   648   0.168E+01 0.210E+01
DMP:   3    -0.193205875962E+04   -0.44963E+00   -0.32371E+00   648   0.720E+00 0.173E+01
DMP:   4    -0.193230157687E+04   -0.24282E+00   -0.13406E+00   648   0.249E+00 0.810E+00
DMP:   5    -0.193239417388E+04   -0.92597E-01   -0.46064E-01   648   0.974E-01 0.256E+00
DMP:   6    -0.193242349011E+04   -0.29316E-01   -0.16724E-01   648   0.510E-01 0.627E-01
DMP:   7    -0.193243340822E+04   -0.99181E-02   -0.71151E-02   648   0.275E-01 0.155E-01
DMP:   8    -0.193243736143E+04   -0.39532E-02   -0.34045E-02   648   0.150E-01 0.396E-02
DMP:   9    -0.193243931531E+04   -0.19539E-02   -0.21980E-02   648   0.967E-02 0.254E-02
DMP:  10    -0.193244086577E+04   -0.15505E-02   -0.18048E-02   648   0.667E-02 0.454E-02
DMP:  11    -0.193244229208E+04   -0.14263E-02   -0.13305E-02   648   0.392E-02 0.525E-02
DMP:  12    -0.193244333926E+04   -0.10472E-02   -0.75937E-03   648   0.181E-02 0.383E-02
DMP:  13    -0.193244390548E+04   -0.56622E-03   -0.32841E-03   648   0.671E-03 0.187E-02
DMP:  14    -0.193244413032E+04   -0.22484E-03   -0.11521E-03   648   0.260E-03 0.608E-03
DMP:  15    -0.193244420220E+04   -0.71875E-04   -0.45628E-04   648   0.154E-03 0.143E-03
DMP:  16    -0.193244423158E+04   -0.29380E-04   -0.28265E-04   648   0.107E-03 0.655E-04
DMP:  17    -0.193244425209E+04   -0.20513E-04   -0.19666E-04   648   0.652E-04 0.638E-04
DMP:  18    -0.193244426687E+04   -0.14777E-04   -0.12012E-04   648   0.342E-04 0.498E-04
DMP:  19    -0.193244427589E+04   -0.90215E-05   -0.67476E-05   648   0.177E-04 0.309E-04
   6 F= -.19324443E+04 E0= -.19324443E+04  d E =-.161954E-01  mag=     2.0000
       N       E                     dE             d eps       ncg     rms          ort
SDA:   1    -0.193213616276E+04    0.30810E+00   -0.11987E+00   648   0.599E+00 0.000E+00
DMP:   2    -0.193224235465E+04   -0.10619E+00   -0.12202E+00   648   0.370E+00 0.463E+00
DMP:   3    -0.193234178116E+04   -0.99427E-01   -0.72388E-01   648   0.162E+00 0.384E+00
DMP:   4    -0.193239647382E+04   -0.54693E-01   -0.31138E-01   648   0.596E-01 0.185E+00
DMP:   5    -0.193241825940E+04   -0.21786E-01   -0.11336E-01   648   0.243E-01 0.622E-01
DMP:   6    -0.193242558070E+04   -0.73213E-02   -0.41669E-02   648   0.122E-01 0.166E-01
DMP:   7    -0.193242802009E+04   -0.24394E-02   -0.15920E-02   648   0.609E-02 0.360E-02
DMP:   8    -0.193242884021E+04   -0.82012E-03   -0.68299E-03   648   0.328E-02 0.258E-03
DMP:   9    -0.193242921802E+04   -0.37780E-03   -0.48767E-03   648   0.225E-02 0.369E-03
DMP:  10    -0.193242957921E+04   -0.36120E-03   -0.42469E-03   648   0.151E-02 0.118E-02
DMP:  11    -0.193242992351E+04   -0.34430E-03   -0.30695E-03   648   0.848E-03 0.132E-02
DMP:  12    -0.193243017003E+04   -0.24651E-03   -0.17767E-03   648   0.404E-03 0.933E-03
DMP:  13    -0.193243030789E+04   -0.13786E-03   -0.86218E-04   648   0.175E-03 0.493E-03
DMP:  14    -0.193243037208E+04   -0.64186E-04   -0.37693E-04   648   0.779E-04 0.213E-03
DMP:  15    -0.193243039902E+04   -0.26940E-04   -0.16366E-04   648   0.389E-04 0.826E-04
DMP:  16    -0.193243041048E+04   -0.11465E-04   -0.80025E-05   648   0.223E-04 0.341E-04
DMP:  17    -0.193243041622E+04   -0.57360E-05   -0.46611E-05   648   0.137E-04 0.185E-04
   7 F= -.19324304E+04 E0= -.19324304E+04  d E =0.138597E-01  mag=     2.0000
       N       E                     dE             d eps       ncg     rms          ort
SDA:   1    -0.193233455348E+04    0.95857E-01   -0.47496E-01   648   0.237E+00 0.000E+00
DMP:   2    -0.193237652974E+04   -0.41976E-01   -0.48280E-01   648   0.147E+00 0.182E+00
DMP:   3    -0.193241563396E+04   -0.39104E-01   -0.28023E-01   648   0.624E-01 0.150E+00
DMP:   4    -0.193243661705E+04   -0.20983E-01   -0.11471E-01   648   0.211E-01 0.698E-01
DMP:   5    -0.193244457767E+04   -0.79606E-02   -0.39318E-02   648   0.808E-02 0.223E-01
DMP:   6    -0.193244712352E+04   -0.25458E-02   -0.14294E-02   648   0.412E-02 0.583E-02
DMP:   7    -0.193244800943E+04   -0.88591E-03   -0.63065E-03   648   0.225E-02 0.173E-02
DMP:   8    -0.193244839680E+04   -0.38736E-03   -0.33298E-03   648   0.129E-02 0.730E-03
DMP:   9    -0.193244861252E+04   -0.21572E-03   -0.22037E-03   648   0.844E-03 0.497E-03
DMP:  10    -0.193244877344E+04   -0.16092E-03   -0.17054E-03   648   0.588E-03 0.509E-03
DMP:  11    -0.193244890789E+04   -0.13445E-03   -0.12568E-03   648   0.373E-03 0.492E-03
DMP:  12    -0.193244900715E+04   -0.99262E-04   -0.76685E-04   648   0.194E-03 0.365E-03
DMP:  13    -0.193244906522E+04   -0.58071E-04   -0.36660E-04   648   0.806E-04 0.198E-03
DMP:  14    -0.193244909133E+04   -0.26113E-04   -0.14435E-04   648   0.315E-04 0.784E-04
DMP:  15    -0.193244910111E+04   -0.97757E-05   -0.60058E-05   648   0.164E-04 0.262E-04
   8 F= -.19324491E+04 E0= -.19324491E+04  d E =-.482522E-02  mag=     2.0000
       N       E                     dE             d eps       ncg     rms          ort
SDA:   1    -0.193244789985E+04    0.11915E-02   -0.50071E-03   648   0.250E-02 0.000E+00
DMP:   2    -0.193244834248E+04   -0.44264E-03   -0.51436E-03   648   0.157E-02 0.192E-02
DMP:   3    -0.193244875809E+04   -0.41561E-03   -0.29444E-03   648   0.649E-03 0.159E-02
DMP:   4    -0.193244897747E+04   -0.21938E-03   -0.11552E-03   648   0.202E-03 0.723E-03
DMP:   5    -0.193244905717E+04   -0.79703E-04   -0.38348E-04   648   0.772E-04 0.220E-03
DMP:   6    -0.193244908200E+04   -0.24836E-04   -0.14462E-04   648   0.425E-04 0.574E-04
DMP:   7    -0.193244909138E+04   -0.93763E-05   -0.73741E-05   648   0.254E-04 0.220E-04
   9 F= -.19324491E+04 E0= -.19324491E+04  d E =-.481549E-02  mag=     2.0000
       N       E                     dE             d eps       ncg     rms          ort
SDA:   1    -0.193244838156E+04    0.70045E-03   -0.20937E-03   648   0.105E-02 0.000E+00
DMP:   2    -0.193244856665E+04   -0.18509E-03   -0.21539E-03   648   0.659E-03 0.804E-03
DMP:   3    -0.193244874092E+04   -0.17427E-03   -0.12468E-03   648   0.277E-03 0.666E-03
DMP:   4    -0.193244883454E+04   -0.93617E-04   -0.51176E-04   648   0.931E-04 0.313E-03
DMP:   5    -0.193244887086E+04   -0.36326E-04   -0.19038E-04   648   0.391E-04 0.108E-03
DMP:   6    -0.193244888408E+04   -0.13216E-04   -0.81367E-05   648   0.212E-04 0.375E-04
DMP:   7    -0.193244888984E+04   -0.57625E-05   -0.41801E-05   648   0.119E-04 0.173E-04
  10 F= -.19324489E+04 E0= -.19324489E+04  d E =-.461395E-02  mag=     2.0000
       N       E                     dE             d eps       ncg     rms          ort
SDA:   1    -0.193244884841E+04    0.35666E-04   -0.68900E-04   648   0.345E-03 0.000E+00
DMP:   2    -0.193244890979E+04   -0.61380E-04   -0.68739E-04   648   0.204E-03 0.269E-03
DMP:   3    -0.193244896669E+04   -0.56896E-04   -0.41453E-04   648   0.902E-04 0.225E-03
DMP:   4    -0.193244899907E+04   -0.32379E-04   -0.19551E-04   648   0.372E-04 0.117E-03
DMP:   5    -0.193244901371E+04   -0.14640E-04   -0.86144E-05   648   0.178E-04 0.487E-04
DMP:   6    -0.193244902006E+04   -0.63548E-05   -0.41051E-05   648   0.985E-05 0.205E-04
  11 F= -.19324490E+04 E0= -.19324490E+04  d E =-.474417E-02  mag=     2.0000
       N       E                     dE             d eps       ncg     rms          ort
SDA:   1    -0.193244903152E+04   -0.17816E-04   -0.13461E-04   648   0.673E-04 0.000E+00
DMP:   2    -0.193244904376E+04   -0.12236E-04   -0.14173E-04   648   0.423E-04 0.550E-04
DMP:   3    -0.193244905596E+04   -0.12202E-04   -0.96597E-05   648   0.218E-04 0.511E-04
DMP:   4    -0.193244906399E+04   -0.80257E-05   -0.54604E-05   648   0.107E-04 0.319E-04
  12 F= -.19324491E+04 E0= -.19324491E+04  d E =-.478810E-02  mag=     2.0000
       N       E                     dE             d eps       ncg     rms          ort
SDA:   1    -0.193244904875E+04    0.72157E-05   -0.20793E-05   648   0.104E-04 0.000E+00
DMP:   2    -0.193244905052E+04   -0.17691E-05   -0.18262E-05   648   0.534E-05 0.730E-05
  13 F= -.19324491E+04 E0= -.19324491E+04  d E =-.477463E-02  mag=     2.0000
       N       E                     dE             d eps       ncg     rms          ort
SDA:   1    -0.193244906265E+04   -0.13899E-04   -0.48372E-06   648   0.242E-05 0.000E+00
DMP:   2    -0.193244906309E+04   -0.44460E-06   -0.52260E-06   648   0.156E-05 0.203E-05
  14 F= -.19324491E+04 E0= -.19324491E+04  d E =-.478720E-02  mag=     2.0000
       N       E                     dE             d eps       ncg     rms          ort
SDA:   1    -0.193241974383E+04    0.29319E-01   -0.12399E-01   648   0.620E-01 0.000E+00
DMP:   2    -0.193243070832E+04   -0.10964E-01   -0.12682E-01   648   0.387E-01 0.477E-01
DMP:   3    -0.193244096757E+04   -0.10259E-01   -0.73783E-02   648   0.165E-01 0.392E-01
DMP:   4    -0.193244643736E+04   -0.54698E-02   -0.29510E-02   648   0.550E-02 0.178E-01
DMP:   5    -0.193244842120E+04   -0.19838E-02   -0.95081E-03   648   0.211E-02 0.509E-02
DMP:   6    -0.193244899648E+04   -0.57528E-03   -0.33419E-03   648   0.115E-02 0.100E-02
DMP:   7    -0.193244918369E+04   -0.18720E-03   -0.14875E-03   648   0.639E-03 0.203E-03
DMP:   8    -0.193244926578E+04   -0.82087E-04   -0.79967E-04   648   0.359E-03 0.785E-04
DMP:   9    -0.193244931545E+04   -0.49676E-04   -0.58036E-04   648   0.239E-03 0.981E-04
DMP:  10    -0.193244935900E+04   -0.43546E-04   -0.48051E-04   648   0.164E-03 0.146E-03
DMP:  11    -0.193244939779E+04   -0.38792E-04   -0.34808E-04   648   0.970E-04 0.148E-03
DMP:  12    -0.193244942560E+04   -0.27814E-04   -0.20160E-04   648   0.465E-04 0.105E-03
DMP:  13    -0.193244944106E+04   -0.15452E-04   -0.93511E-05   648   0.187E-04 0.540E-04
DMP:  14    -0.193244944788E+04   -0.68283E-05   -0.37847E-05   648   0.763E-05 0.217E-04
  15 F= -.19324494E+04 E0= -.19324494E+04  d E =-.384795E-03  mag=     2.0000
       N       E                     dE             d eps       ncg     rms          ort
SDA:   1    -0.193244595707E+04    0.34840E-02   -0.17066E-02   648   0.853E-02 0.000E+00
DMP:   2    -0.193244747333E+04   -0.15163E-02   -0.17209E-02   648   0.516E-02 0.663E-02
DMP:   3    -0.193244888739E+04   -0.14141E-02   -0.10203E-02   648   0.223E-02 0.554E-02
DMP:   4    -0.193244967446E+04   -0.78708E-03   -0.45183E-03   648   0.820E-03 0.277E-02
DMP:   5    -0.193245000522E+04   -0.33075E-03   -0.17762E-03   648   0.343E-03 0.105E-02
DMP:   6    -0.193245013114E+04   -0.12592E-03   -0.74802E-04   648   0.181E-03 0.372E-03
DMP:   7    -0.193245018375E+04   -0.52611E-04   -0.35204E-04   648   0.968E-04 0.153E-03
DMP:   8    -0.193245020810E+04   -0.24350E-04   -0.16615E-04   648   0.478E-04 0.679E-04
DMP:   9    -0.193245021941E+04   -0.11315E-04   -0.84204E-05   648   0.263E-04 0.304E-04
DMP:  10    -0.193245022553E+04   -0.61116E-05   -0.55252E-05   648   0.176E-04 0.194E-04
  16 F= -.19324502E+04 E0= -.19324502E+04  d E =-.116244E-02  mag=     2.0000
       N       E                     dE             d eps       ncg     rms          ort
SDA:   1    -0.193244777860E+04    0.24408E-02   -0.91699E-03   648   0.458E-02 0.000E+00
DMP:   2    -0.193244859255E+04   -0.81395E-03   -0.91604E-03   648   0.273E-02 0.355E-02
DMP:   3    -0.193244934465E+04   -0.75210E-03   -0.53822E-03   648   0.116E-02 0.294E-02
DMP:   4    -0.193244976036E+04   -0.41571E-03   -0.23939E-03   648   0.435E-03 0.147E-02
DMP:   5    -0.193244993706E+04   -0.17671E-03   -0.97895E-04   648   0.193E-03 0.571E-03
DMP:   6    -0.193245000826E+04   -0.71193E-04   -0.44775E-04   648   0.108E-03 0.223E-03
DMP:   7    -0.193245004127E+04   -0.33011E-04   -0.23070E-04   648   0.600E-04 0.107E-03
DMP:   8    -0.193245005824E+04   -0.16974E-04   -0.11623E-04   648   0.297E-04 0.547E-04
DMP:   9    -0.193245006667E+04   -0.84279E-05   -0.58234E-05   648   0.154E-04 0.265E-04
  17 F= -.19324501E+04 E0= -.19324501E+04  d E =-.100358E-02  mag=     2.0000
       N       E                     dE             d eps       ncg     rms          ort
SDA:   1    -0.193245004536E+04    0.12882E-04   -0.29750E-05   648   0.149E-04 0.000E+00
DMP:   2    -0.193245004804E+04   -0.26829E-05   -0.30981E-05   648   0.921E-05 0.121E-04
  18 F= -.19324500E+04 E0= -.19324500E+04  d E =-.984951E-03  mag=     2.0000
       N       E                     dE             d eps       ncg     rms          ort
SDA:   1    -0.193245007032E+04   -0.24962E-04   -0.15457E-05   648   0.773E-05 0.000E+00
DMP:   2    -0.193245007173E+04   -0.14130E-05   -0.17602E-05   648   0.543E-05 0.648E-05
  19 F= -.19324501E+04 E0= -.19324501E+04  d E =-.100864E-02  mag=     2.0000
       N       E                     dE             d eps       ncg     rms          ort
SDA:   1    -0.193244849593E+04    0.15744E-02   -0.83580E-03   648   0.418E-02 0.000E+00
DMP:   2    -0.193244924436E+04   -0.74843E-03   -0.90183E-03   648   0.279E-02 0.330E-02
DMP:   3    -0.193244998912E+04   -0.74476E-03   -0.56667E-03   648   0.131E-02 0.294E-02
DMP:   4    -0.193245042112E+04   -0.43200E-03   -0.24314E-03   648   0.444E-03 0.149E-02
DMP:   5    -0.193245058934E+04   -0.16821E-03   -0.75820E-04   648   0.137E-03 0.466E-03
DMP:   6    -0.193245063429E+04   -0.44959E-04   -0.19689E-04   648   0.619E-04 0.704E-04
DMP:   7    -0.193245064332E+04   -0.90249E-05   -0.75563E-05   648   0.420E-04-0.816E-05
  20 F= -.19324506E+04 E0= -.19324506E+04  d E =-.571586E-03  mag=     2.0000
       N       E                     dE             d eps       ncg     rms          ort
SDA:   1    -0.193245064645E+04   -0.12153E-04   -0.56627E-05   648   0.283E-04 0.000E+00
DMP:   2    -0.193245065159E+04   -0.51467E-05   -0.60823E-05   648   0.184E-04 0.231E-04
  21 F= -.19324507E+04 E0= -.19324507E+04  d E =-.579861E-03  mag=     2.0000
       N       E                     dE             d eps       ncg     rms          ort
SDA:   1    -0.193245028716E+04    0.35928E-03   -0.88842E-04   648   0.444E-03 0.000E+00
DMP:   2    -0.193245036760E+04   -0.80441E-04   -0.93560E-04   648   0.281E-03 0.360E-03
DMP:   3    -0.193245044731E+04   -0.79705E-04   -0.61251E-04   648   0.135E-03 0.329E-03
DMP:   4    -0.193245049721E+04   -0.49896E-04   -0.31075E-04   648   0.552E-04 0.193E-03
DMP:   5    -0.193245052171E+04   -0.24501E-04   -0.13783E-04   648   0.223E-04 0.897E-04
DMP:   6    -0.193245053237E+04   -0.10667E-04   -0.59818E-05   648   0.103E-04 0.378E-04
DMP:   7    -0.193245053699E+04   -0.46176E-05   -0.27598E-05   648   0.535E-05 0.163E-04
  22 F= -.19324505E+04 E0= -.19324505E+04  d E =-.465258E-03  mag=     2.0000
       N       E                     dE             d eps       ncg     rms          ort
SDA:   1    -0.193245006451E+04    0.46787E-03   -0.92489E-04   648   0.462E-03 0.000E+00
DMP:   2    -0.193245014851E+04   -0.83999E-04   -0.98306E-04   648   0.295E-03 0.378E-03
DMP:   3    -0.193245023280E+04   -0.84294E-04   -0.65811E-04   648   0.146E-03 0.352E-03
DMP:   4    -0.193245028705E+04   -0.54252E-04   -0.34791E-04   648   0.630E-04 0.214E-03
DMP:   5    -0.193245031503E+04   -0.27979E-04   -0.16477E-04   648   0.274E-04 0.106E-03
DMP:   6    -0.193245032814E+04   -0.13111E-04   -0.76828E-05   648   0.131E-04 0.487E-04
DMP:   7    -0.193245033427E+04   -0.61255E-05   -0.37347E-05   648   0.681E-05 0.228E-04
  23 F= -.19324503E+04 E0= -.19324503E+04  d E =-.262536E-03  mag=     2.0000
       N       E                     dE             d eps       ncg     rms          ort
SDA:   1    -0.193245038165E+04   -0.53511E-04   -0.35028E-04   648   0.175E-03 0.000E+00
DMP:   2    -0.193245041285E+04   -0.31192E-04   -0.36632E-04   648   0.112E-03 0.137E-03
DMP:   3    -0.193245044279E+04   -0.29939E-04   -0.21911E-04   648   0.492E-04 0.116E-03
DMP:   4    -0.193245045923E+04   -0.16443E-04   -0.88354E-05   648   0.157E-04 0.548E-04
DMP:   5    -0.193245046526E+04   -0.60357E-05   -0.28246E-05   648   0.570E-05 0.162E-04
  24 F= -.19324505E+04 E0= -.19324505E+04  d E =-.393531E-03  mag=     2.0000
       N       E                     dE             d eps       ncg     rms          ort
SDA:   1    -0.193245039169E+04    0.67537E-04   -0.80980E-05   648   0.405E-04 0.000E+00
DMP:   2    -0.193245039892E+04   -0.72293E-05   -0.80517E-05   648   0.237E-04 0.319E-04
  25 F= -.19324504E+04 E0= -.19324504E+04  d E =-.327188E-03  mag=     2.0000
       N       E                     dE             d eps       ncg     rms          ort
SDA:   1    -0.193245045904E+04   -0.67348E-04   -0.75660E-06   648   0.378E-05 0.000E+00
DMP:   2    -0.193245045972E+04   -0.68465E-06   -0.79105E-06   648   0.238E-05 0.303E-05
  26 F= -.19324505E+04 E0= -.19324505E+04  d E =-.387991E-03  mag=     2.0000
       N       E                     dE             d eps       ncg     rms          ort
SDA:   1    -0.193245043585E+04    0.23186E-04   -0.61157E-06   648   0.306E-05 0.000E+00
DMP:   2    -0.193245043640E+04   -0.55171E-06   -0.62915E-06   648   0.186E-05 0.248E-05
  27 F= -.19324504E+04 E0= -.19324504E+04  d E =-.364672E-03  mag=     2.0000
       N       E                     dE             d eps       ncg     rms          ort
SDA:   1    -0.193245044663E+04   -0.10781E-04   -0.47793E-07   648   0.239E-06 0.000E+00
DMP:   2    -0.193245044668E+04   -0.44449E-07   -0.54566E-07   648   0.167E-06 0.204E-06
  28 F= -.19324504E+04 E0= -.19324504E+04  d E =-.374945E-03  mag=     2.0000
       N       E                     dE             d eps       ncg     rms          ort
SDA:   1    -0.193245044467E+04    0.19603E-05   -0.30419E-07   648   0.152E-06 0.000E+00
DMP:   2    -0.193245044470E+04   -0.27863E-07   -0.35378E-07   648   0.108E-06 0.133E-06
  29 F= -.19324504E+04 E0= -.19324504E+04  d E =-.372968E-03  mag=     2.0000
       N       E                     dE             d eps       ncg     rms          ort
SDA:   1    -0.193245009192E+04    0.35275E-03   -0.15613E-03   648   0.781E-03 0.000E+00
DMP:   2    -0.193245023132E+04   -0.13939E-03   -0.16659E-03   648   0.514E-03 0.613E-03
DMP:   3    -0.193245036821E+04   -0.13689E-03   -0.10237E-03   648   0.233E-03 0.536E-03
DMP:   4    -0.193245044590E+04   -0.77693E-04   -0.42867E-04   648   0.767E-04 0.265E-03
DMP:   5    -0.193245047569E+04   -0.29795E-04   -0.13689E-04   648   0.250E-04 0.837E-04
DMP:   6    -0.193245048419E+04   -0.84937E-05   -0.41826E-05   648   0.123E-04 0.166E-04
  30 F= -.19324505E+04 E0= -.19324505E+04  d E =-.394871E-04  mag=     2.0000
