       N       E                     dE             d eps       ncg     rms          ort
SDA:   1    -0.193175530065E+04   -0.19318E+04   -0.48535E+00   648   0.121E+01 0.000E+00
DMP:   2    -0.193209707699E+04   -0.34178E+00   -0.16220E+00   648   0.217E+00 0.494E+00
DMP:   3    -0.193218319272E+04   -0.86116E-01   -0.27949E-01   648   0.608E-01 0.239E-01
DMP:   4    -0.193219920068E+04   -0.16008E-01   -0.25926E-01   648   0.612E-01 0.957E-02
DMP:   5    -0.193221766766E+04   -0.18467E-01   -0.11780E-01   648   0.191E-01 0.272E-01
DMP:   6    -0.193222457639E+04   -0.69087E-02   -0.31755E-02   648   0.607E-02 0.490E-02
DMP:   7    -0.193222674488E+04   -0.21685E-02   -0.19999E-02   648   0.392E-02 0.282E-02
DMP:   8    -0.193222825472E+04   -0.15098E-02   -0.90856E-03   648   0.131E-02 0.252E-02
DMP:   9    -0.193222890920E+04   -0.65449E-03   -0.36811E-03   648   0.539E-03 0.997E-03
DMP:  10    -0.193222919491E+04   -0.28570E-03   -0.22529E-03   648   0.365E-03 0.519E-03
DMP:  11    -0.193222937764E+04   -0.18273E-03   -0.14113E-03   648   0.212E-03 0.369E-03
DMP:  12    -0.193222948975E+04   -0.11211E-03   -0.82396E-04   648   0.118E-03 0.231E-03
DMP:  13    -0.193222955582E+04   -0.66068E-04   -0.52755E-04   648   0.747E-04 0.150E-03
DMP:  14    -0.193222959774E+04   -0.41922E-04   -0.35128E-04   648   0.486E-04 0.103E-03
DMP:  15    -0.193222962479E+04   -0.27042E-04   -0.24844E-04   648   0.352E-04 0.706E-04
DMP:  16    -0.193222964335E+04   -0.18560E-04   -0.19332E-04   648   0.285E-04 0.518E-04
DMP:  17    -0.193222965736E+04   -0.14014E-04   -0.15450E-04   648   0.230E-04 0.410E-04
DMP:  18    -0.193222966819E+04   -0.10829E-04   -0.12256E-04   648   0.180E-04 0.331E-04
DMP:  19    -0.193222967648E+04   -0.82866E-05   -0.97397E-05   648   0.142E-04 0.265E-04
   1 F= -.19322297E+04 E0= -.19322297E+04  d E =0.000000E+00  mag=     2.0000
