 vasp.5.4.4.18Apr17-6-g9f103f2a35 (build May 07 2022 11:18:47) complex          
  
 executed on             LinuxIFC date 2026.05.12  20:15:21
 running on   48 total cores
 distrk:  each k-point on   48 cores,    1 groups
 distr:  one band on NCORES_PER_BAND=  24 cores,    2 groups


--------------------------------------------------------------------------------------------------------


 INCAR:
 POTCAR:   PAW_PBE N 08Apr2002                    
 POTCAR:   PAW_PBE C 08Apr2002                    

 ----------------------------------------------------------------------------- 
|                                                                             |
|           W    W    AA    RRRRR   N    N  II  N    N   GGGG   !!!           |
|           W    W   A  A   R    R  NN   N  II  NN   N  G    G  !!!           |
|           W    W  A    A  R    R  N N  N  II  N N  N  G       !!!           |
|           W WW W  AAAAAA  RRRRR   N  N N  II  N  N N  G  GGG   !            |
|           WW  WW  A    A  R   R   N   NN  II  N   NN  G    G                |
|           W    W  A    A  R    R  N    N  II  N    N   GGGG   !!!           |
|                                                                             |
|      For optimal performance we recommend to set                            |
|        NCORE= 4 - approx SQRT( number of cores)                             |
|      NCORE specifies how many cores store one orbital (NPAR=cpu/NCORE).     |
|      This setting can  greatly improve the performance of VASP for DFT.     |
|      The default,   NCORE=1            might be grossly inefficient         |
|      on modern multi-core architectures or massively parallel machines.     |
|      Do your own testing !!!!                                               |
|      Unfortunately you need to use the default for GW and RPA calculations. |
|      (for HF NCORE is supported but not extensively tested yet)             |
|                                                                             |
 ----------------------------------------------------------------------------- 

 POTCAR:   PAW_PBE N 08Apr2002                    
   VRHFIN =N: s2p3                                                              
   LEXCH  = PE                                                                  
   EATOM  =   264.5486 eV,   19.4438 Ry                                         
                                                                                
   TITEL  = PAW_PBE N 08Apr2002                                                 
   LULTRA =        F    use ultrasoft PP ?                                      
   IUNSCR =        0    unscreen: 0-lin 1-nonlin 2-no                           
   RPACOR =     .000    partial core radius                                     
   POMASS =   14.001; ZVAL   =    5.000    mass and valenz                      
   RCORE  =    1.500    outmost cutoff radius                                   
   RWIGS  =    1.400; RWIGS  =     .741    wigner-seitz radius (au A)           
   ENMAX  =  400.000; ENMIN  =  300.000 eV                                      
   ICORE  =        2    local potential                                         
   LCOR   =        T    correct aug charges                                     
   LPAW   =        T    paw PP                                                  
   EAUG   =  627.112                                                            
   DEXC   =     .000                                                            
   RMAX   =    2.247    core radius for proj-oper                               
   RAUG   =    1.300    factor for augmentation sphere                          
   RDEP   =    1.514    radius for radial grids                                 
   QCUT   =   -5.562; QGAM   =   11.124    optimization parameters              
                                                                                
   Description                                                                  
     l     E      TYP  RCUT    TYP  RCUT                                        
     0   .000     23  1.200                                                     
     0   .000     23  1.200                                                     
     1   .000     23  1.500                                                     
     1   .700     23  1.500                                                     
     2   .000      7  1.500                                                     
  local pseudopotential read in
  atomic valenz-charges read in
  non local Contribution for L=           0  read in
    real space projection operators read in
  non local Contribution for L=           0  read in
    real space projection operators read in
  non local Contribution for L=           1  read in
    real space projection operators read in
  non local Contribution for L=           1  read in
    real space projection operators read in
    PAW grid and wavefunctions read in
 
   number of l-projection  operators is LMAX  =           4
   number of lm-projection operators is LMMAX =           8
 
 POTCAR:   PAW_PBE C 08Apr2002                    
   VRHFIN =C: s2p2                                                              
   LEXCH  = PE                                                                  
   EATOM  =   147.1560 eV,   10.8157 Ry                                         
                                                                                
   TITEL  = PAW_PBE C 08Apr2002                                                 
   LULTRA =        F    use ultrasoft PP ?                                      
   IUNSCR =        0    unscreen: 0-lin 1-nonlin 2-no                           
   RPACOR =     .000    partial core radius                                     
   POMASS =   12.011; ZVAL   =    4.000    mass and valenz                      
   RCORE  =    1.500    outmost cutoff radius                                   
   RWIGS  =    1.630; RWIGS  =     .863    wigner-seitz radius (au A)           
   ENMAX  =  400.000; ENMIN  =  300.000 eV                                      
   ICORE  =        2    local potential                                         
   LCOR   =        T    correct aug charges                                     
   LPAW   =        T    paw PP                                                  
   EAUG   =  644.873                                                            
   DEXC   =     .000                                                            
   RMAX   =    2.266    core radius for proj-oper                               
   RAUG   =    1.300    factor for augmentation sphere                          
   RDEP   =    1.501    radius for radial grids                                 
   RDEPT  =    1.300    core radius for aug-charge                              
   QCUT   =   -5.516; QGAM   =   11.032    optimization parameters              
                                                                                
   Description                                                                  
     l     E      TYP  RCUT    TYP  RCUT                                        
     0   .000     23  1.200                                                     
     0   .000     23  1.200                                                     
     1   .000     23  1.500                                                     
     1  2.500     23  1.500                                                     
     2   .000      7  1.500                                                     
  local pseudopotential read in
  atomic valenz-charges read in
  non local Contribution for L=           0  read in
    real space projection operators read in
  non local Contribution for L=           0  read in
    real space projection operators read in
  non local Contribution for L=           1  read in
    real space projection operators read in
  non local Contribution for L=           1  read in
    real space projection operators read in
    PAW grid and wavefunctions read in
 
   number of l-projection  operators is LMAX  =           4
   number of lm-projection operators is LMMAX =           8
 
 Optimization of the real space projectors (new method)

 maximal supplied QI-value         = 25.13
 optimisation between [QCUT,QGAM] = [ 11.56, 23.12] = [ 37.43,149.72] Ry 
 Optimized for a Real-space Cutoff    1.25 Angstroem

   l    n(q)    QCUT    max X(q) W(low)/X(q) W(high)/X(q)  e(spline) 
   0      9    11.561     4.511    0.30E-04    0.28E-04    0.49E-07
   0      9    11.561    37.799    0.51E-04    0.16E-03    0.37E-06
   1      8    11.561     2.478    0.16E-04    0.39E-04    0.64E-07
   1      8    11.561    11.620    0.47E-03    0.29E-03    0.82E-06
 Optimization of the real space projectors (new method)

 maximal supplied QI-value         = 25.13
 optimisation between [QCUT,QGAM] = [ 11.56, 23.12] = [ 37.43,149.72] Ry 
 Optimized for a Real-space Cutoff    1.01 Angstroem

   l    n(q)    QCUT    max X(q) W(low)/X(q) W(high)/X(q)  e(spline) 
   0      7    11.561     5.582    0.37E-04    0.15E-03    0.14E-07
   0      7    11.561    69.432    0.33E-03    0.93E-03    0.20E-06
   1      6    11.561     2.780    0.26E-04    0.68E-04    0.38E-07
   1      6    11.561     4.549    0.40E-03    0.28E-03    0.11E-06
 PAW_PBE N 08Apr2002                    :
 energy of atom  1       EATOM= -264.5486
 kinetic energy error for atom=    0.0125 (will be added to EATOM!!)
 PAW_PBE C 08Apr2002                    :
 energy of atom  2       EATOM= -147.1560
 kinetic energy error for atom=    0.0071 (will be added to EATOM!!)
 
 
 POSCAR: x3                                      
  positions in direct lattice
  velocities in cartesian coordinates
 exchange correlation table for  LEXCH =        8
   RHO(1)=    0.500       N(1)  =     2000
   RHO(2)=  100.500       N(2)  =     4000
 


--------------------------------------------------------------------------------------------------------


 ion  position               nearest neighbor table
   1  0.550  0.383  0.550-  64 1.48   7 1.48 104 1.48
   2  0.958  0.792  0.125- 136 1.54 133 1.54  16 1.54  63 1.54
   3  0.375  0.541  0.875-  42 1.54   9 1.54  40 1.54  27 1.55
   4  0.292  0.125  0.791- 171 1.54 126 1.54  31 1.54 158 1.54
   5  0.293  0.624  0.625- 204 1.54   6 1.54 198 1.55  47 1.55
   6  0.375  0.708  0.708- 172 1.54   9 1.54 168 1.54   5 1.54
   7  0.461  0.458  0.625-   1 1.48   8 1.54  47 1.55  33 1.55
   8  0.543  0.543  0.710-   9 1.54  74 1.54  72 1.54   7 1.54
   9  0.459  0.626  0.792-   8 1.54  10 1.54   6 1.54   3 1.54
  10  0.542  0.709  0.875- 211 1.54   9 1.54  28 1.54  58 1.54
  11  0.625  0.792  0.125-  59 1.54  12 1.54  45 1.55 212 1.55
  12  0.708  0.875  0.209-  11 1.54  21 1.54  23 1.54  17 1.54
  13  0.625  0.959  0.958-  53 1.54  14 1.54 175 1.55 212 1.55
  14  0.708  0.042  0.042-  13 1.54  86 1.54  90 1.54  17 1.54
  15  0.792  0.792  0.959-  16 1.54 215 1.54  59 1.54  53 1.54
  16  0.875  0.875  0.042-  15 1.54  17 1.54 137 1.54   2 1.54
  17  0.791  0.958  0.125-  18 1.54  16 1.54  12 1.54  14 1.54
  18  0.875  0.042  0.208-  17 1.54 135 1.54 145 1.54  98 1.54
  19  0.625  0.792  0.458-  29 1.54  67 1.54  20 1.54 165 1.54
  20  0.708  0.876  0.542-  25 1.54  19 1.54  79 1.54  82 1.54
  21  0.625  0.959  0.292- 165 1.54  12 1.54 189 1.54  22 1.54
  22  0.708  0.042  0.375-  25 1.53  98 1.54  21 1.54  94 1.56
  23  0.791  0.792  0.292-  63 1.54  24 1.54  12 1.54  67 1.54
  24  0.875  0.875  0.375-  25 1.54 143 1.54 145 1.54  23 1.54
  25  0.791  0.958  0.458-  22 1.53  24 1.54  20 1.54  26 1.54
  26  0.874  0.042  0.541- 113 1.54  25 1.54 153 1.55 105 1.55
  27  0.293  0.458  0.791- 204 1.54   3 1.55 128 1.55  33 1.55
  28  0.625  0.792  0.792-  53 1.54  75 1.54  10 1.54 173 1.54
  29  0.542  0.709  0.542-  19 1.54 172 1.54  74 1.54  51 1.55
  30  0.541  0.540  0.377-  51 1.53  50 1.55  64 1.55  66 1.55
  31  0.375  0.208  0.874- 178 1.54 180 1.54   4 1.54  36 1.54
  32  0.293  0.289  0.623- 185 1.47 120 1.54 126 1.55  33 1.55
  33  0.376  0.374  0.707-  36 1.53  32 1.55   7 1.55  27 1.55
  34  0.456  0.127  0.622- 185 1.48 167 1.54  35 1.55 171 1.56
  35  0.540  0.210  0.707-  36 1.53  34 1.55 104 1.55 102 1.55
  36  0.458  0.292  0.791-  35 1.53  33 1.53  31 1.54  37 1.55
  37  0.542  0.375  0.875-  42 1.54  88 1.54  72 1.54  36 1.55
  38  0.292  0.458  0.125- 179 1.54 161 1.54 112 1.54  39 1.55
  39  0.375  0.542  0.208-  44 1.54  48 1.54  38 1.55  50 1.56
  40  0.292  0.625  0.958- 206 1.54 161 1.54  41 1.54   3 1.54
  41  0.375  0.708  0.042- 211 1.54  44 1.54 207 1.54  40 1.54
  42  0.458  0.458  0.958-  37 1.54   3 1.54  43 1.54 179 1.54
  43  0.542  0.541  0.042-  44 1.54  42 1.54  58 1.54  56 1.54
  44  0.458  0.625  0.125-  39 1.54  43 1.54  41 1.54  45 1.54
  45  0.541  0.708  0.209- 164 1.54  44 1.54  11 1.55  66 1.55
  46  0.293  0.456  0.458- 107 1.49 120 1.54  47 1.55 196 1.56
  47  0.377  0.540  0.541-  51 1.53  46 1.55   7 1.55   5 1.55
  48  0.292  0.625  0.292-  39 1.54 196 1.54  49 1.54 190 1.54
  49  0.375  0.708  0.375- 188 1.54 164 1.54  48 1.54  51 1.55
  50  0.458  0.456  0.293- 107 1.49 183 1.54  30 1.55  39 1.56
  51  0.459  0.625  0.459-  47 1.53  30 1.53  49 1.55  29 1.55
  52  0.547  0.203  0.368-  96 1.47  94 1.48 106 1.49
  53  0.708  0.876  0.875-  28 1.54  13 1.54  84 1.54  15 1.54
  54  0.708  0.042  0.708- 102 1.54 105 1.54  79 1.54  84 1.55
  55  0.875  0.375  0.875- 134 1.54  78 1.54 199 1.54  60 1.54
  56  0.624  0.458  0.126-  57 1.54  89 1.54  43 1.54 183 1.54
  57  0.708  0.541  0.209-  68 1.54  66 1.54  56 1.54  62 1.55
  58  0.625  0.625  0.959-  59 1.54  73 1.54  10 1.54  43 1.54
  59  0.708  0.708  0.042-  58 1.54  11 1.54  62 1.54  15 1.54
  60  0.792  0.458  0.959-  61 1.54  73 1.54  55 1.54  89 1.54
  61  0.875  0.542  0.042-  60 1.54 129 1.54  62 1.54 131 1.54
  62  0.791  0.625  0.126-  63 1.54  61 1.54  59 1.54  57 1.55
  63  0.875  0.708  0.209-  62 1.54 193 1.54  23 1.54   2 1.54
  64  0.625  0.458  0.461-   1 1.48  65 1.54  30 1.55  97 1.55
  65  0.710  0.543  0.543-  70 1.54  74 1.54  76 1.54  64 1.54
  66  0.625  0.624  0.293-  57 1.54  67 1.54  45 1.55  30 1.55
  67  0.708  0.708  0.375-  19 1.54  70 1.54  23 1.54  66 1.54
  68  0.791  0.458  0.293-  57 1.54  69 1.55  93 1.55  97 1.55
  69  0.875  0.541  0.375- 191 1.54  70 1.54 193 1.54  68 1.55
  70  0.792  0.626  0.459-  65 1.54  71 1.54  67 1.54  69 1.54
  71  0.875  0.709  0.542- 143 1.54  70 1.54  82 1.54 202 1.54
  72  0.626  0.459  0.793-  73 1.54  37 1.54   8 1.54  81 1.54
  73  0.709  0.542  0.876-  72 1.54  58 1.54  60 1.54 201 1.54
  74  0.626  0.626  0.626-  75 1.54  29 1.54  65 1.54   8 1.54
  75  0.709  0.709  0.709-  74 1.54  28 1.54  82 1.54 201 1.54
  76  0.793  0.459  0.626-  77 1.54 101 1.54  65 1.54  81 1.54
  77  0.876  0.542  0.709-  76 1.54 202 1.54 199 1.54 201 1.54
  78  0.792  0.292  0.792-  81 1.54  55 1.54  80 1.54 103 1.54
  79  0.624  0.959  0.624-  54 1.54  20 1.54 173 1.54 167 1.55
  80  0.875  0.209  0.708- 123 1.54  78 1.54 121 1.54 105 1.55
  81  0.710  0.376  0.710-  78 1.54  76 1.54  72 1.54 104 1.55
  82  0.792  0.792  0.625-  83 1.54  75 1.54  71 1.54  20 1.54
  83  0.875  0.876  0.708-  82 1.54 153 1.54  84 1.54 151 1.54
  84  0.791  0.959  0.791-  85 1.54  53 1.54  83 1.54  54 1.55
  85  0.875  0.042  0.875-  84 1.54  90 1.54 121 1.54 137 1.54
  86  0.625  0.125  0.125- 181 1.54  14 1.54 189 1.54  87 1.54
  87  0.708  0.209  0.208-  92 1.53  98 1.54  86 1.54  96 1.55
  88  0.625  0.292  0.959-  37 1.54 103 1.54  89 1.54 181 1.54
  89  0.708  0.375  0.042-  92 1.54  88 1.54  56 1.54  60 1.54
  90  0.791  0.125  0.958-  85 1.54  14 1.54  91 1.54 103 1.54
  91  0.875  0.208  0.042-  92 1.54 134 1.54 135 1.54  90 1.54
  92  0.792  0.291  0.125-  87 1.53  91 1.54  89 1.54  93 1.54
  93  0.874  0.375  0.209- 115 1.54  92 1.54 129 1.55  68 1.55
  94  0.622  0.127  0.456-  52 1.48 167 1.54  95 1.55  22 1.56
  95  0.707  0.210  0.540- 100 1.53  94 1.55 104 1.55 105 1.55
  96  0.623  0.289  0.293-  52 1.47 183 1.54  87 1.55  97 1.55
  97  0.707  0.374  0.376- 100 1.53  96 1.55  64 1.55  68 1.55
  98  0.791  0.125  0.292-  22 1.54  87 1.54  99 1.54  18 1.54
  99  0.874  0.208  0.375- 115 1.54 113 1.54  98 1.54 100 1.54
 100  0.791  0.292  0.458-  95 1.53  97 1.53  99 1.54 101 1.55
 101  0.875  0.375  0.542- 191 1.54 123 1.54  76 1.54 100 1.55
 102  0.625  0.126  0.791-  54 1.54 103 1.55 175 1.55  35 1.55
 103  0.708  0.209  0.875-  88 1.54  78 1.54  90 1.54 102 1.55
 104  0.625  0.294  0.625-   1 1.48  81 1.55  95 1.55  35 1.55
 105  0.791  0.126  0.625-  54 1.54  80 1.55  26 1.55  95 1.55
 106  0.459  0.126  0.293-  52 1.49 163 1.54 177 1.54 189 1.55
 107  0.368  0.380  0.368- 108 1.49  50 1.49  46 1.49
 108  0.292  0.291  0.292- 107 1.49 177 1.54 118 1.54 112 1.56
 109  0.125  0.125  0.958- 110 1.54 122 1.54 158 1.54 138 1.54
 110  0.208  0.208  0.041- 109 1.54 111 1.54 178 1.54 176 1.54
 111  0.124  0.291  0.124- 112 1.54 132 1.54 159 1.54 110 1.54
 112  0.207  0.374  0.207- 111 1.54  38 1.54 195 1.54 108 1.56
 113  0.958  0.125  0.458-  26 1.54  99 1.54 114 1.54 146 1.54
 114  0.042  0.208  0.541- 125 1.54 119 1.54 113 1.54 123 1.54
 115  0.958  0.291  0.292-  93 1.54  99 1.54 116 1.54 159 1.54
 116  0.042  0.375  0.375- 195 1.54 115 1.54 191 1.54 119 1.54
 117  0.125  0.125  0.292- 118 1.54 142 1.54 146 1.54 159 1.54
 118  0.209  0.208  0.375- 119 1.54 108 1.54 184 1.54 117 1.54
 119  0.126  0.291  0.458- 118 1.54 120 1.54 114 1.54 116 1.54
 120  0.209  0.374  0.541-  46 1.54 119 1.54  32 1.54 203 1.55
 121  0.958  0.125  0.791-  85 1.54 154 1.54 122 1.54  80 1.54
 122  0.042  0.208  0.875- 127 1.54 134 1.54 109 1.54 121 1.54
 123  0.959  0.292  0.625- 101 1.54  80 1.54 124 1.54 114 1.54
 124  0.042  0.375  0.708- 127 1.54 123 1.54 203 1.54 199 1.54
 125  0.125  0.125  0.625- 114 1.54 154 1.54 150 1.54 126 1.54
 126  0.208  0.209  0.708- 127 1.53   4 1.54 125 1.54  32 1.55
 127  0.125  0.291  0.792- 126 1.53 122 1.54 124 1.54 128 1.54
 128  0.209  0.375  0.874- 178 1.54 127 1.54 160 1.55  27 1.55
 129  0.958  0.458  0.125-  61 1.54 130 1.54  93 1.55 132 1.55
 130  0.041  0.541  0.208- 129 1.54 195 1.54 193 1.54 162 1.54
 131  0.959  0.625  0.959- 133 1.54 215 1.54  61 1.54 200 1.54
 132  0.041  0.375  0.041- 111 1.54 134 1.54 129 1.55 160 1.55
 133  0.042  0.708  0.042- 131 1.54 162 1.54 139 1.54   2 1.54
 134  0.958  0.292  0.958-  55 1.54 132 1.54  91 1.54 122 1.54
 135  0.958  0.125  0.125- 159 1.54  91 1.54  18 1.54 138 1.54
 136  0.042  0.875  0.208-   2 1.54 141 1.54 147 1.54 145 1.54
 137  0.958  0.958  0.958- 138 1.54 152 1.54  16 1.54  85 1.54
 138  0.042  0.042  0.042- 137 1.54 141 1.54 135 1.54 109 1.54
 139  0.125  0.792  0.958- 140 1.54 133 1.54 152 1.54 206 1.54
 140  0.208  0.875  0.042- 139 1.54 141 1.54 207 1.54 209 1.54
 141  0.125  0.958  0.125- 136 1.54 140 1.54 138 1.54 142 1.54
 142  0.208  0.042  0.208- 186 1.54 141 1.54 176 1.54 117 1.54
 143  0.958  0.792  0.458- 144 1.54  71 1.54  24 1.54 194 1.54
 144  0.041  0.875  0.541- 149 1.54 143 1.54 153 1.55 155 1.55
 145  0.958  0.958  0.292- 146 1.54  24 1.54  18 1.54 136 1.54
 146  0.041  0.041  0.375- 145 1.54 149 1.54 117 1.54 113 1.54
 147  0.125  0.792  0.292- 148 1.54 190 1.54 194 1.54 136 1.54
 148  0.208  0.875  0.375- 147 1.54 149 1.54 188 1.54 186 1.54
 149  0.125  0.958  0.458- 150 1.53 144 1.54 148 1.54 146 1.54
 150  0.208  0.041  0.541- 149 1.53 170 1.54 125 1.54 184 1.55
 151  0.959  0.792  0.792- 152 1.54 215 1.54 214 1.54  83 1.54
 152  0.042  0.875  0.875- 151 1.54 157 1.54 137 1.54 139 1.54
 153  0.958  0.959  0.625-  83 1.54 154 1.54 144 1.55  26 1.55
 154  0.042  0.042  0.708- 153 1.54 125 1.54 121 1.54 157 1.54
 155  0.125  0.792  0.625- 214 1.54 156 1.54 198 1.55 144 1.55
 156  0.209  0.875  0.708- 155 1.54 170 1.54 168 1.54 157 1.54
 157  0.125  0.958  0.791- 158 1.54 152 1.54 156 1.54 154 1.54
 158  0.208  0.042  0.875- 157 1.54 109 1.54 209 1.54   4 1.54
 159  0.041  0.208  0.208- 135 1.54 111 1.54 115 1.54 117 1.54
 160  0.125  0.458  0.958- 200 1.54 161 1.54 128 1.55 132 1.55
 161  0.208  0.541  0.041- 160 1.54  38 1.54  40 1.54 162 1.54
 162  0.125  0.625  0.125- 190 1.54 133 1.54 130 1.54 161 1.54
 163  0.375  0.042  0.375- 166 1.54 106 1.54 184 1.54 186 1.54
 164  0.458  0.792  0.292-  45 1.54  49 1.54 165 1.54 208 1.54
 165  0.541  0.875  0.375-  21 1.54 164 1.54  19 1.54 166 1.54
 166  0.458  0.959  0.458- 163 1.54 167 1.54 187 1.54 165 1.54
 167  0.541  0.043  0.541- 166 1.54  94 1.54  34 1.54  79 1.55
 168  0.292  0.792  0.791- 206 1.54 169 1.54 156 1.54   6 1.54
 169  0.375  0.875  0.875- 174 1.54 211 1.54 209 1.54 168 1.54
 170  0.292  0.959  0.625- 187 1.54 156 1.54 150 1.54 171 1.54
 171  0.375  0.042  0.708- 174 1.53   4 1.54 170 1.54  34 1.56
 172  0.458  0.792  0.625-  29 1.54   6 1.54 173 1.54 187 1.54
 173  0.542  0.876  0.708- 174 1.54 172 1.54  79 1.54  28 1.54
 174  0.458  0.958  0.791- 171 1.53 169 1.54 173 1.54 175 1.54
 175  0.541  0.042  0.874- 180 1.54 174 1.54  13 1.55 102 1.55
 176  0.292  0.125  0.125- 177 1.54 142 1.54 210 1.54 110 1.54
 177  0.375  0.208  0.209- 182 1.54 108 1.54 106 1.54 176 1.54
 178  0.292  0.291  0.958- 128 1.54  31 1.54 179 1.54 110 1.54
 179  0.375  0.375  0.042-  38 1.54 178 1.54  42 1.54 182 1.54
 180  0.458  0.125  0.958- 175 1.54  31 1.54 181 1.54 210 1.54
 181  0.541  0.208  0.042-  86 1.54 182 1.54 180 1.54  88 1.54
 182  0.458  0.291  0.126- 177 1.54 183 1.54 181 1.54 179 1.54
 183  0.541  0.374  0.209-  50 1.54 182 1.54  96 1.54  56 1.54
 184  0.293  0.126  0.459- 185 1.49 163 1.54 118 1.54 150 1.55
 185  0.368  0.203  0.547-  32 1.47  34 1.48 184 1.49
 186  0.292  0.959  0.292- 142 1.54 208 1.54 148 1.54 163 1.54
 187  0.375  0.875  0.541- 170 1.54 188 1.54 172 1.54 166 1.54
 188  0.292  0.792  0.458- 198 1.54  49 1.54 187 1.54 148 1.54
 189  0.541  0.041  0.208- 213 1.53  21 1.54  86 1.54 106 1.55
 190  0.208  0.708  0.208- 162 1.54 147 1.54 207 1.54  48 1.54
 191  0.958  0.458  0.458- 101 1.54  69 1.54 192 1.54 116 1.54
 192  0.042  0.541  0.542- 197 1.54 191 1.54 202 1.54 203 1.54
 193  0.958  0.625  0.292-  63 1.54 130 1.54 194 1.54  69 1.54
 194  0.042  0.708  0.375- 143 1.54 197 1.54 147 1.54 193 1.54
 195  0.125  0.458  0.292- 116 1.54 130 1.54 112 1.54 196 1.55
 196  0.208  0.542  0.375- 197 1.54  48 1.54 195 1.55  46 1.56
 197  0.125  0.625  0.458- 196 1.54 192 1.54 194 1.54 198 1.54
 198  0.209  0.708  0.541- 188 1.54 197 1.54 155 1.55   5 1.55
 199  0.959  0.458  0.792- 200 1.54  77 1.54  55 1.54 124 1.54
 200  0.042  0.542  0.875- 199 1.54 160 1.54 205 1.54 131 1.54
 201  0.792  0.625  0.792- 215 1.54  77 1.54  73 1.54  75 1.54
 202  0.959  0.625  0.625- 214 1.54  77 1.54  71 1.54 192 1.54
 203  0.126  0.458  0.624- 204 1.54 124 1.54 192 1.54 120 1.55
 204  0.209  0.541  0.708-  27 1.54   5 1.54 203 1.54 205 1.55
 205  0.126  0.625  0.791- 206 1.54 200 1.54 214 1.54 204 1.55
 206  0.209  0.708  0.875- 205 1.54  40 1.54 168 1.54 139 1.54
 207  0.292  0.792  0.125- 208 1.54 190 1.54  41 1.54 140 1.54
 208  0.375  0.875  0.208- 207 1.54 213 1.54 164 1.54 186 1.54
 209  0.292  0.958  0.958- 210 1.54 169 1.54 158 1.54 140 1.54
 210  0.375  0.041  0.041- 209 1.54 213 1.54 176 1.54 180 1.54
 211  0.458  0.792  0.958- 212 1.54  10 1.54 169 1.54  41 1.54
 212  0.541  0.875  0.041- 213 1.54 211 1.54  13 1.55  11 1.55
 213  0.458  0.958  0.125- 189 1.53 212 1.54 208 1.54 210 1.54
 214  0.042  0.708  0.708- 202 1.54 155 1.54 205 1.54 151 1.54
 215  0.875  0.709  0.875- 201 1.54 151 1.54  15 1.54 131 1.54
 

IMPORTANT INFORMATION: All symmetrisations will be switched off!
NOSYMM: (Re-)initialisation of all symmetry stuff for point group C_1.

 
 
 KPOINTS: Num irrep kpoints: 1                    

Automatic generation of k-mesh.
Space group operators:
 irot       det(A)        alpha          n_x          n_y          n_z        tau_x        tau_y        tau_z
    1     1.000000     0.000001     1.000000     0.000000     0.000000     0.000000     0.000000     0.000000
 
 Subroutine IBZKPT returns following result:
 ===========================================
 
 Found      1 irreducible k-points:
 
 Following reciprocal coordinates:
            Coordinates               Weight
  0.000000  0.000000  0.000000      1.000000
 
 Following cartesian coordinates:
            Coordinates               Weight
  0.000000  0.000000  0.000000      1.000000
 


--------------------------------------------------------------------------------------------------------




 Dimension of arrays:
   k-points           NKPTS =      1   k-points in BZ     NKDIM =      1   number of bands    NBANDS=    648
   number of dos      NEDOS =    301   number of ions     NIONS =    215
   non local maximal  LDIM  =      4   non local SUM 2l+1 LMDIM =      8
   total plane-waves  NPLWV = 216000
   max r-space proj   IRMAX =   1489   max aug-charges    IRDMAX=   2380
   dimension x,y,z NGX =    60 NGY =   60 NGZ =   60
   dimension x,y,z NGXF=   120 NGYF=  120 NGZF=  120
   support grid    NGXF=   120 NGYF=  120 NGZF=  120
   ions per type =               1 214
   NGX,Y,Z   is equivalent  to a cutoff of   9.34,  9.34,  9.34 a.u.
   NGXF,Y,Z  is equivalent  to a cutoff of  18.68, 18.68, 18.68 a.u.

 SYSTEM =  unknown system                          
 POSCAR =  x3                                      

 Startparameter for this run:
   NWRITE =      2    write-flag & timer
   PREC   = normal    normal or accurate (medium, high low for compatibility)
   ISTART =      0    job   : 0-new  1-cont  2-samecut
   ICHARG =      2    charge: 1-file 2-atom 10-const
   ISPIN  =      2    spin polarized calculation?
   LNONCOLLINEAR =      F non collinear calculations
   LSORBIT =      F    spin-orbit coupling
   INIWAV =      1    electr: 0-lowe 1-rand  2-diag
   LASPH  =      T    aspherical Exc in radial PAW
   METAGGA=      F    non-selfconsistent MetaGGA calc.

 Electronic Relaxation 1
   ENCUT  =  520.0 eV  38.22 Ry    6.18 a.u.  19.86 19.86 19.86*2*pi/ulx,y,z
   ENINI  =  520.0     initial cutoff
   ENAUG  =  644.9 eV  augmentation charge cutoff
   NELM   =    100;   NELMIN=  2; NELMDL= -5     # of ELM steps 
   EDIFF  = 0.1E-04   stopping-criterion for ELM
   LREAL  =      T    real-space projection
   NLSPLINE    = F    spline interpolate recip. space projectors
   LCOMPAT=      F    compatible to vasp.4.4
   GGA_COMPAT  = T    GGA compatible to vasp.4.4-vasp.4.6
   LMAXPAW     = -100 max onsite density
   LMAXMIX     =    2 max onsite mixed and CHGCAR
   VOSKOWN=      0    Vosko Wilk Nusair interpolation
   ROPT   =   -0.00050  -0.00050
 Ionic relaxation
   EDIFFG = -.1E-01   stopping-criterion for IOM
   NSW    =      0    number of steps for IOM
   NBLOCK =      1;   KBLOCK =      1    inner block; outer block 
   IBRION =     -1    ionic relax: 0-MD 1-quasi-New 2-CG
   NFREE  =      1    steps in history (QN), initial steepest desc. (CG)
   ISIF   =      2    stress and relaxation
   IWAVPR =     10    prediction:  0-non 1-charg 2-wave 3-comb
   ISYM   =     -1    0-nonsym 1-usesym 2-fastsym
   LCORR  =      T    Harris-Foulkes like correction to forces

   POTIM  = 0.5000    time-step for ionic-motion
   TEIN   =    0.0    initial temperature
   TEBEG  =    0.0;   TEEND  =   0.0 temperature during run
   SMASS  =  -3.00    Nose mass-parameter (am)
   estimated Nose-frequenzy (Omega)   =  0.10E-29 period in steps =****** mass=  -0.261E-26a.u.
   SCALEE = 1.0000    scale energy and forces
   NPACO  =    256;   APACO  = 16.0  distance and # of slots for P.C.
   PSTRESS=    0.0 pullay stress

  Mass of Ions in am
   POMASS =  14.00 12.01
  Ionic Valenz
   ZVAL   =   5.00  4.00
  Atomic Wigner-Seitz radii
   RWIGS  =  -1.00 -1.00
  virtual crystal weights 
   VCA    =   1.00  1.00
   NELECT =     862.0000    total number of electrons
   NUPDOWN=      -1.0000    fix difference up-down

 DOS related values:
   EMIN   =  10.00;   EMAX   =-10.00  energy-range for DOS
   EFERMI =   0.00
   ISMEAR =    -2;   SIGMA  =   0.10  broadening in eV -4-tet -1-fermi 0-gaus

 Electronic relaxation 2 (details)
   IALGO  =     38    algorithm
   LDIAG  =      T    sub-space diagonalisation (order eigenvalues)
   LSUBROT=      F    optimize rotation matrix (better conditioning)
   TURBO    =      0    0=normal 1=particle mesh
   IRESTART =      0    0=no restart 2=restart with 2 vectors
   NREBOOT  =      0    no. of reboots
   NMIN     =      0    reboot dimension
   EREF     =   0.00    reference energy to select bands
   IMIX   =      4    mixing-type and parameters
     AMIX     =   0.40;   BMIX     =  1.00
     AMIX_MAG =   1.60;   BMIX_MAG =  1.00
     AMIN     =   0.10
     WC   =   100.;   INIMIX=   1;  MIXPRE=   1;  MAXMIX= -45

 Intra band minimization:
   WEIMIN = 0.0000     energy-eigenvalue tresh-hold
   EBREAK =  0.39E-08  absolut break condition
   DEPER  =   0.30     relativ break condition  

   TIME   =   0.40     timestep for ELM

  volume/ion in A,a.u.               =       5.67        38.26
  Fermi-wavevector in a.u.,A,eV,Ry     =   1.458529  2.756220 28.943770  2.127307
  Thomas-Fermi vector in A             =   2.575203
 
 Write flags
   LWAVE        =      T    write WAVECAR
   LDOWNSAMPLE  =      F    k-point downsampling of WAVECAR
   LCHARG       =      T    write CHGCAR
   LVTOT        =      F    write LOCPOT, total local potential
   LVHAR        =      F    write LOCPOT, Hartree potential only
   LELF         =      F    write electronic localiz. function (ELF)
   LORBIT       =     11    0 simple, 1 ext, 2 COOP (PROOUT), +10 PAW based schemes


 Dipole corrections
   LMONO  =      F    monopole corrections only (constant potential shift)
   LDIPOL =      F    correct potential (dipole corrections)
   IDIPOL =      0    1-x, 2-y, 3-z, 4-all directions 
   EPSILON=  1.0000000 bulk dielectric constant

 Exchange correlation treatment:
   GGA     =    --    GGA type
   LEXCH   =     8    internal setting for exchange type
   VOSKOWN=      0    Vosko Wilk Nusair interpolation
   LHFCALC =     F    Hartree Fock is set to
   LHFONE  =     F    Hartree Fock one center treatment
   AEXX    =    0.0000 exact exchange contribution

 Linear response parameters
   LEPSILON=     F    determine dielectric tensor
   LRPA    =     F    only Hartree local field effects (RPA)
   LNABLA  =     F    use nabla operator in PAW spheres
   LVEL    =     F    velocity operator in full k-point grid
   LINTERFAST=   F  fast interpolation
   KINTER  =     0    interpolate to denser k-point grid
   CSHIFT  =0.1000    complex shift for real part using Kramers Kronig
   OMEGAMAX=  -1.0    maximum frequency
   DEG_THRESHOLD= 0.2000000E-02 threshold for treating states as degnerate
   RTIME   =   -0.100 relaxation time in fs
  (WPLASMAI=    0.000 imaginary part of plasma frequency in eV, 0.658/RTIME)
   DFIELD  = 0.0000000 0.0000000 0.0000000 field for delta impulse in time
 
 Orbital magnetization related:
   ORBITALMAG=     F  switch on orbital magnetization
   LCHIMAG   =     F  perturbation theory with respect to B field
   DQ        =  0.001000  dq finite difference perturbation B field
   LLRAUG    =     F  two centre corrections for induced B field



--------------------------------------------------------------------------------------------------------


 Static calculation
 charge density and potential will be updated during run
 spin polarized calculation
 Variant of blocked Davidson
 Davidson routine will perform the subspace rotation
 perform sub-space diagonalisation
    after iterative eigenvector-optimisation
 modified Broyden-mixing scheme, WC =      100.0
 initial mixing is a Kerker type mixing with AMIX =  0.4000 and BMIX =      1.0000
 Hartree-type preconditioning will be used
 using additional bands          217
 real space projection scheme for non local part
 calculate Harris-corrections to forces 
   (improved forces if not selfconsistent)
 use gradient corrections 
 use of overlap-Matrix (Vanderbilt PP)
 partial occupancies read from INCAR or WAVECAR (fixed during run)


--------------------------------------------------------------------------------------------------------


  energy-cutoff  :      520.00
  volume of cell :     1218.95
      direct lattice vectors                 reciprocal lattice vectors
    10.682237625  0.000000000  0.000000000     0.093613345  0.000000012  0.000000012
    -0.000001422 10.682234764  0.000000000     0.000000000  0.093613370  0.000000075
    -0.000001422 -0.000008535 10.682234764     0.000000000  0.000000000  0.093613370

  length of vectors
    10.682237625 10.682234764 10.682234764     0.093613345  0.093613370  0.093613370


 
 k-points in units of 2pi/SCALE and weight: Num irrep kpoints: 1                    
   0.00000000  0.00000000  0.00000000       1.000
 
 k-points in reciprocal lattice and weights: Num irrep kpoints: 1                    
   0.00000000  0.00000000  0.00000000       1.000
 
 position of ions in fractional coordinates (direct lattice) 
   0.54988446  0.38317480  0.54988728
   0.95819788  0.79157548  0.12508409
   0.37539978  0.54146699  0.87485525
   0.29173044  0.12498724  0.79082674
   0.29272279  0.62404935  0.62482324
   0.37544353  0.70837049  0.70821574
   0.46143732  0.45823575  0.62519125
   0.54256883  0.54296678  0.70964691
   0.45870043  0.62560071  0.79223350
   0.54194039  0.70878598  0.87540470
   0.62488040  0.79152325  0.12537368
   0.70794995  0.87508315  0.20861158
   0.62481629  0.95872912  0.95810430
   0.70794926  0.04188000  0.04171265
   0.79162193  0.79190083  0.95853672
   0.87484924  0.87512659  0.04178191
   0.79127591  0.95838452  0.12507229
   0.87452051  0.04168884  0.20841728
   0.62483163  0.79203036  0.45838295
   0.70809474  0.87559477  0.54161430
   0.62454266  0.95862241  0.29168690
   0.70821097  0.04152160  0.37545953
   0.79139866  0.79164276  0.29180886
   0.87486487  0.87492692  0.37513544
   0.79144693  0.95842740  0.45800243
   0.87436290  0.04214581  0.54134274
   0.29279138  0.45782894  0.79054103
   0.62507151  0.79233632  0.79176954
   0.54185184  0.70865955  0.54184958
   0.54093209  0.54028775  0.37660966
   0.37497758  0.20818009  0.87444332
   0.29293891  0.28920413  0.62320657
   0.37621103  0.37361818  0.70653588
   0.45635040  0.12687726  0.62230798
   0.54042632  0.20951148  0.70659274
   0.45844047  0.29166136  0.79100251
   0.54175772  0.37498526  0.87514492
   0.29157769  0.45785482  0.12478701
   0.37510913  0.54185562  0.20785174
   0.29182606  0.62477982  0.95814555
   0.37506286  0.70830613  0.04150016
   0.45844122  0.45814873  0.95848617
   0.54170359  0.54140806  0.04209394
   0.45827900  0.62498499  0.12494440
   0.54143279  0.70790668  0.20889566
   0.29273988  0.45629614  0.45788262
   0.37660885  0.54029363  0.54093469
   0.29165992  0.62472619  0.29165889
   0.37504002  0.70812181  0.37503926
   0.45788142  0.45629773  0.29273350
   0.45854864  0.62462352  0.45854987
   0.54693758  0.20345632  0.36844139
   0.70828342  0.87553317  0.87500192
   0.70774343  0.04238097  0.70774403
   0.87541875  0.37521211  0.87541712
   0.62448668  0.45758591  0.12591102
   0.70789040  0.54109205  0.20906834
   0.62513089  0.62516148  0.95891397
   0.70829999  0.70837399  0.04217803
   0.79179717  0.45837681  0.95894172
   0.87497861  0.54162502  0.04215277
   0.79143678  0.62478210  0.12558052
   0.87479128  0.70821113  0.20862027
   0.62518827  0.45822184  0.46144002
   0.70964462  0.54296037  0.54257025
   0.62482151  0.62404480  0.29272260
   0.70821728  0.70836906  0.37544313
   0.79054285  0.45783233  0.29279160
   0.87485450  0.54146795  0.37539967
   0.79223246  0.62560141  0.45870245
   0.87540482  0.70878686  0.54194296
   0.62560406  0.45886943  0.79270712
   0.70882049  0.54212764  0.87579637
   0.62559447  0.62604648  0.62559280
   0.70881266  0.70917337  0.70881336
   0.79270881  0.45887139  0.62560595
   0.87579553  0.54212830  0.70882144
   0.79224955  0.29193474  0.79224893
   0.62421387  0.95944024  0.62421184
   0.87489905  0.20862914  0.70815095
   0.70958443  0.37575369  0.70957357
   0.79176973  0.79233567  0.62507136
   0.87500239  0.87553247  0.70828333
   0.79139297  0.95893418  0.79139389
   0.87481348  0.04192271  0.87481487
   0.62456328  0.12492228  0.12533039
   0.70849262  0.20878280  0.20797743
   0.62485644  0.29164979  0.95856944
   0.70820135  0.37483490  0.04214186
   0.79137676  0.12507481  0.95824892
   0.87489092  0.20836467  0.04153576
   0.79158460  0.29126412  0.12499270
   0.87434671  0.37460132  0.20885553
   0.62231560  0.12687396  0.45635215
   0.70659630  0.20950366  0.54042961
   0.62321856  0.28920263  0.29292504
   0.70654934  0.37361949  0.37620380
   0.79082502  0.12498606  0.29173207
   0.87444220  0.20817822  0.37497920
   0.79100315  0.29165878  0.45844046
   0.87514544  0.37498496  0.54175621
   0.62455292  0.12605026  0.79052802
   0.70814812  0.20863069  0.87490125
   0.62504002  0.29435777  0.62503165
   0.79052803  0.12605296  0.62455604
   0.45930363  0.12600208  0.29289313
   0.36835912  0.37982894  0.36834987
   0.29205577  0.29076633  0.29205314
   0.12493246  0.12480472  0.95798819
   0.20824815  0.20802599  0.04132470
   0.12438965  0.29128867  0.12439168
   0.20746886  0.37429566  0.20746788
   0.95802739  0.12509333  0.45819121
   0.04182362  0.20815741  0.54145051
   0.95794783  0.29139059  0.29182909
   0.04168271  0.37453357  0.37509295
   0.12501543  0.12490768  0.29180057
   0.20865503  0.20776116  0.37532221
   0.12552366  0.29120404  0.45814846
   0.20947632  0.37369375  0.54143241
   0.95824776  0.12507548  0.79137846
   0.04153491  0.20836641  0.87489099
   0.95856975  0.29164943  0.62485786
   0.04214319  0.37483560  0.70820026
   0.12533167  0.12492274  0.62456201
   0.20798060  0.20878746  0.70849361
   0.12499201  0.29126377  0.79158128
   0.20885421  0.37460175  0.87434630
   0.95799702  0.45810202  0.12535156
   0.04147210  0.54140937  0.20844516
   0.95853046  0.62495764  0.95853128
   0.04141454  0.37477923  0.04141598
   0.04172939  0.70826148  0.04173034
   0.95830204  0.29153835  0.95830468
   0.95798718  0.12480414  0.12493436
   0.04151672  0.87492697  0.20830993
   0.95820351  0.95839448  0.95820431
   0.04154502  0.04159827  0.04154666
   0.12508375  0.79157441  0.95819915
   0.20830939  0.87492667  0.04151702
   0.12492338  0.95823388  0.12492434
   0.20834716  0.04151730  0.20834876
   0.95829552  0.79171336  0.45833906
   0.04145591  0.87482276  0.54144361
   0.95800850  0.95827238  0.29158941
   0.04139542  0.04144471  0.37491371
   0.12491891  0.79151806  0.29160767
   0.20825439  0.87487032  0.37486808
   0.12454436  0.95785019  0.45832050
   0.20771004  0.04097311  0.54084470
   0.95853486  0.79190054  0.79162334
   0.04178093  0.87512648  0.87485024
   0.95810320  0.95872730  0.62481672
   0.04171001  0.04188141  0.70794849
   0.12537268  0.79152486  0.62488063
   0.20861322  0.87508252  0.70795110
   0.12507036  0.95838344  0.79127615
   0.20841580  0.04168876  0.87452232
   0.04132554  0.20802526  0.20824977
   0.12535030  0.45810169  0.95799648
   0.20844465  0.54140786  0.04147317
   0.12499920  0.62468552  0.12499986
   0.37519379  0.04246597  0.37519766
   0.45825826  0.79158855  0.29185060
   0.54136662  0.87534653  0.37504871
   0.45806882  0.95915249  0.45807187
   0.54069039  0.04321960  0.54068839
   0.29180897  0.79164189  0.79139878
   0.37513471  0.87492654  0.87486605
   0.29168483  0.95862254  0.62454241
   0.37545760  0.04152899  0.70820714
   0.45838805  0.79203171  0.62483371
   0.54161374  0.87559726  0.70809305
   0.45800026  0.95842841  0.79144778
   0.54134202  0.04214496  0.87436291
   0.29179663  0.12490621  0.12501370
   0.37532182  0.20776022  0.20865376
   0.29182582  0.29139400  0.95794961
   0.37509184  0.37453215  0.04168218
   0.45818991  0.12509265  0.95802815
   0.54145177  0.20815626  0.04182384
   0.45815023  0.29120214  0.12552091
   0.54142924  0.37369638  0.20946906
   0.29289413  0.12600785  0.45930887
   0.36843692  0.20346029  0.54691135
   0.29192915  0.95856806  0.29193010
   0.37505079  0.87534847  0.54136876
   0.29185155  0.79158688  0.45825715
   0.54084559  0.04097679  0.20771418
   0.20824692  0.70815159  0.20824814
   0.95848683  0.45814925  0.45844221
   0.04209173  0.54140950  0.54170352
   0.95814545  0.62478063  0.29182721
   0.04150015  0.70830642  0.37506479
   0.12478652  0.45785444  0.29157789
   0.20785284  0.54185261  0.37511178
   0.12494412  0.62498321  0.45828075
   0.20889806  0.70790772  0.54143467
   0.95894196  0.45837827  0.79179770
   0.04215248  0.54162545  0.87497862
   0.79208396  0.62543181  0.79208512
   0.95891156  0.62516298  0.62513101
   0.12590900  0.45758583  0.62448418
   0.20906734  0.54109330  0.70789217
   0.12557941  0.62478141  0.79143764
   0.20861852  0.70820942  0.87479241
   0.29160659  0.79151802  0.12491943
   0.37486602  0.87487092  0.20825640
   0.29158844  0.95827154  0.95801020
   0.37491191  0.04144408  0.04139422
   0.45833926  0.79171174  0.95829605
   0.54144376  0.87482265  0.04145853
   0.45831661  0.95785138  0.12454349
   0.04217696  0.70837398  0.70830025
   0.87528387  0.70864660  0.87528516
 
 position of ions in cartesian coordinates  (Angst):
   5.87399513  4.09315845  5.87402500
  10.23569615  8.45579408  1.33617760
   4.01010768  5.78407004  9.34540917
   3.11633254  1.33513628  8.44779693
   3.12693263  6.66623629  6.67450858
   4.01057498  7.56697379  7.56532681
   4.92918153  4.89497654  6.67843966
   5.79584734  5.80009255  7.58061488
   4.89994493  6.68280692  8.46282428
   5.78913378  7.57141071  9.35127853
   6.67511965  8.45523612  1.33927109
   7.56248805  9.34784192  2.22843788
   6.67443335 10.24136131 10.23469508
   7.56248208  0.44737166  0.44558430
   8.45629105  8.45926236 10.23931431
   9.34534613  9.34830729  0.44632416
   8.45259572 10.23768739  1.33605153
   9.34183549  0.44532818  2.22636236
   6.67459812  8.46065035  4.89655424
   7.56403421  9.35330427  5.78565110
   6.67151133 10.24022716  3.11586796
   7.56527730  0.44354029  4.01074682
   8.45390703  8.45651137  3.11717075
   9.34551265  9.34617159  4.00728486
   8.45442212 10.23814260  4.89248946
   9.34015144  0.45020681  5.78275020
   3.12766528  4.89062942  8.44474483
   6.67716016  8.46391584  8.45786811
   5.78818833  7.57006305  5.78816437
   5.77836387  5.77147739  4.02303281
   4.00559808  2.22382115  9.34100883
   3.12924172  3.08934106  6.65723886
   4.01877409  3.99107108  7.54738217
   4.87484239  1.35532738  6.64763992
   5.77296108  2.23804477  7.54798956
   4.89716853  3.11558834  8.44967455
   5.78718289  4.00567310  9.34850345
   3.11470137  4.89091165  1.33300412
   4.00700378  5.78822712  2.22032105
   3.11735302  6.67403656 10.23513570
   4.00650954  7.56629200  0.44331446
   4.89717604  4.89404414 10.23877433
   5.78660567  5.78344766  0.44965730
   4.89544407  6.67623531  1.33468544
   5.78371236  7.56202361  2.23147249
   3.12711564  4.87425853  4.89120961
   4.02302366  5.77153873  5.77839132
   3.11557927  6.67346936  3.11556878
   4.00626504  7.56432017  4.00625737
   4.89119709  4.87427697  3.12704793
   4.89832398  6.67237118  4.89833733
   5.84251636  2.17336499  3.93577747
   7.56604931  9.35264341  9.34697594
   7.56028245  0.45271739  7.56028789
   9.35142938  4.00809643  9.35141115
   6.67091426  4.88803903  1.34501110
   7.56185241  5.78007056  2.23331709
   6.67779445  6.67811352 10.24334412
   7.56622770  7.56701689  0.45055561
   8.45816351  4.89648051 10.24364056
   9.34672861  5.78576525  0.45028574
   8.45431468  6.67406797  1.34148056
   9.34472707  7.56527573  2.22853071
   6.67840835  4.89482929  4.92921063
   7.58059095  5.80002546  5.79586283
   6.67449052  6.66619052  3.12693153
   7.56534378  7.56696138  4.01057166
   8.44476546  4.89066995  3.12766860
   9.34540235  5.78408457  4.01010744
   8.46281386  6.68281717  4.89996724
   9.35128055  7.57142300  5.78916196
   6.68284944  4.90174420  8.46788353
   7.57178686  5.79112724  9.35546248
   6.68274699  6.68757008  6.68272912
   7.57170327  7.57555041  7.57171068
   8.46790229  4.90176654  6.68286959
   9.35545420  5.79113568  7.57179700
   8.46299643  3.11850864  8.46298903
   6.66799865 10.24896053  6.66797745
   9.34587826  2.22861943  7.56463473
   7.57994795  4.01388311  7.57983148
   8.45787036  8.46391026  6.67715903
   9.34698122  9.35263734  7.56604886
   8.45384523 10.24355329  8.45385535
   9.34496417  0.44782079  9.34497786
   6.67173298  1.33444805  1.33880863
   7.56828590  2.23026511  2.22166370
   6.67486318  3.11546336 10.23966384
   7.56517454  4.00407408  0.45016927
   8.45367308  1.33607032 10.23623988
   9.34579238  2.22579994  0.44369476
   8.45589422  3.11135067  1.33520140
   9.33997854  4.00157744  2.23104382
   6.64772224  1.35529353  4.87486076
   7.54802847  2.23796263  5.77299597
   6.65736793  3.08932785  3.12909407
   7.54752685  3.99108794  4.01869730
   8.44778022  1.33512797  3.11635044
   9.34099854  2.22380543  4.00561579
   8.44968254  3.11556364  4.89716863
   9.34851022  4.00567279  5.78716703
   6.67162143  1.34649177  8.44460590
   7.56460495  2.22863453  9.34590059
   6.67682469  3.14439348  6.67673480
   8.44460720  1.34652197  6.67165423
   4.90638989  1.34598129  3.12875313
   3.93489858  4.05741878  3.93479975
   3.11980835  3.10603173  3.11978016
   1.33455673  1.33318511 10.23345480
   2.22455588  2.22218211  0.44144017
   1.32875916  3.11161288  1.32878108
   2.21623087  3.99831229  2.21622056
  10.23387537  1.33627240  4.89450608
   0.44676878  2.22358170  5.78390145
  10.23302552  3.11270020  3.11738690
   0.44526351  4.00085235  4.00683094
   1.33544399  1.33429066  3.11708220
   2.22890174  2.21935030  4.00927999
   1.34087250  3.11070606  4.89404943
   2.23767458  3.99187969  5.78370813
  10.23622897  1.33607892  8.45369045
   0.44368427  2.22581147  9.34579091
  10.23966856  3.11546234  6.67487838
   0.45018203  4.00407581  7.56516144
   1.33882164  1.33444871  6.67171806
   2.22169686  2.23031065  7.56829512
   1.33519282  3.11134126  8.45585708
   2.23102850  4.00157634  9.33997240
  10.23355102  4.89355224  1.33903480
   0.44301374  5.78346026  2.22666013
  10.23924793  6.67593603 10.23925619
   0.44239941  4.00347937  0.44241522
   0.44576223  7.56581506  0.44577334
  10.23680833  3.11427287 10.23683561
  10.23344634  1.33318610  1.33457816
   0.44348991  9.34617355  2.22521558
  10.23575490 10.23778664 10.23576344
   0.44379364  0.44436211  0.44381119
   1.33617186  8.45577555 10.23570825
   2.22520914  9.34617178  0.44349456
   1.33445969 10.23607817  1.33447118
   2.22561347  0.44349575  2.22563035
  10.23673865  8.45726407  4.89608547
   0.44283990  9.34505747  5.78382777
  10.23367266 10.23648809  3.11482653
   0.44219509  0.44271896  4.00491628
   1.33441191  8.45517929  3.11502156
   2.22462112  9.34556699  4.00442886
   1.33041047 10.23197666  4.89588721
   2.21880723  0.43767974  5.77743002
  10.23929487  8.45926068  8.45630639
   0.44631130  9.34829901  9.34535563
  10.23468384 10.24134476  6.67443885
   0.44555514  0.44738100  7.56247194
   1.33925875  8.45524900  6.67512157
   2.22845377  9.34783092  7.56249984
   1.33602882 10.23767012  8.45259761
   2.22634577  0.44532162  9.34185269
   0.44144860  2.22217287  2.22457297
   1.33901966  4.89354158 10.23354334
   2.22665450  5.78344547  0.44302617
   1.33527006  6.67303626  1.33527790
   4.00790862  0.45362823  4.00794943
   4.89522206  8.45593219  3.11761662
   5.78300510  9.35065398  4.00635832
   4.89319794 10.24588814  4.89323128
   5.77578236  0.46167733  5.77576033
   3.11717048  8.45649778  8.45390756
   4.00727562  9.34616328  9.34552454
   3.11584440 10.24022570  6.67150862
   4.01072625  0.44361640  7.56523496
   4.89660810  8.46066328  6.67462042
   5.78564445  9.35332941  7.56401619
   4.89246512 10.23815051  8.45443094
   5.78274279  0.45019491  9.34014984
   3.11704060  1.33427634  1.33542572
   4.00927623  2.21934164  2.22888848
   3.11735097  3.11273093 10.23304263
   4.00681958  4.00083996  0.44525887
   4.89449193  1.33626085 10.23388164
   5.78391610  2.22357373  0.44677204
   4.89406905  3.11068858  1.34084385
   5.78367492  3.99191066  2.23759772
   3.12876391  1.34604147  4.90644520
   3.93572970  2.17340592  5.84223544
   3.11845477 10.23964655  3.11846582
   4.00637968  9.35067323  5.78302814
   3.11762585  8.45591295  4.89521044
   5.77744075  0.43772195  2.21885165
   2.22454175  7.56463974  2.22455549
  10.23878272  4.89405397  4.89718736
   0.44963230  5.78345876  5.78660415
  10.23513610  6.67405082  3.11736676
   0.44331291  7.56629229  4.00653015
   1.33299824  4.89090618  3.11470344
   2.22033211  5.78819364  4.00703208
   1.33468120  6.67621342  4.89546261
   2.23149693  7.56203183  5.78373220
  10.24364406  4.89649758  8.45816893
   0.45028082  5.78576271  9.34672698
   8.46122708  6.68100266  8.46123919
  10.24331940  6.67813233  6.67779623
   1.34498830  4.88803394  6.67088660
   2.23330527  5.78007964  7.56187037
   1.34146714  6.67405498  8.45432265
   2.22851032  7.56525182  9.34473788
   3.11500961  8.45518025  1.33441868
   4.00440637  9.34557479  2.22464378
   3.11481433 10.23647342 10.23368982
   4.00489796  0.44271507  0.44218276
   4.89608636  8.45724252 10.23674334
   5.78382963  9.34506058  0.44286970
   4.89584537 10.23199221  1.33040280
   0.45054226  7.56701110  7.56622952
   9.34998798  7.56992192  9.35000153
 


--------------------------------------------------------------------------------------------------------


 k-point  1 :   0.0000 0.0000 0.0000  plane waves:   32795

 maximum and minimum number of plane-waves per node :      1372     1363

 maximum number of plane-waves:     32795
 maximum index in each direction: 
   IXMAX=   19   IYMAX=   19   IZMAX=   19
   IXMIN=  -19   IYMIN=  -19   IZMIN=  -19


 real space projection operators:
  total allocation   :       9747.38 KBytes
  max/ min on nodes  :        517.50        297.25


 parallel 3D FFT for wavefunctions:
    minimum data exchange during FFTs selected (reduces bandwidth)
 parallel 3D FFT for charge:
    minimum data exchange during FFTs selected (reduces bandwidth)


 total amount of memory used by VASP MPI-rank0    56906. kBytes
=======================================================================

   base      :      30000. kBytes
   nonlr-proj:       5764. kBytes
   fftplans  :       1766. kBytes
   grid      :       4371. kBytes
   one-center:         55. kBytes
   wavefun   :      14950. kBytes
 
     INWAV:  cpu time    0.0000: real time    0.0001
 Broyden mixing: mesh for mixing (old mesh)
   NGX = 39   NGY = 39   NGZ = 39
  (NGX  =120   NGY  =120   NGZ  =120)
  gives a total of  59319 points

 initial charge density was supplied:
 charge density of overlapping atoms calculated
 number of electron     861.0000000 magnetization     215.0000000
 keeping initial charge density in first step


--------------------------------------------------------------------------------------------------------


 Maximum index for non-local projection operator           96
 Maximum index for augmentation-charges          189 (set IRDMAX)


--------------------------------------------------------------------------------------------------------


 First call to EWALD:  gamma=   0.166
 Maximum number of real-space cells 3x 3x 3
 Maximum number of reciprocal cells 3x 3x 3

    FEWALD:  cpu time    0.0058: real time    0.0069


--------------------------------------- Iteration      1(   1)  ---------------------------------------


    POTLOK:  cpu time    0.0476: real time    0.0530
    SETDIJ:  cpu time    0.6248: real time    0.6323
     EDDAV:  cpu time    3.7237: real time    3.7349
       DOS:  cpu time    0.0009: real time    0.0009
    --------------------------------------------
      LOOP:  cpu time    4.3970: real time    4.4211

 eigenvalue-minimisations  :  2592
 total energy-change (2. order) : 0.2601486E+04  (-0.4518125E+05)
 number of electron     861.0000000 magnetization     215.0000000
 augmentation part      861.0000000 magnetization     215.0000000

 Free energy of the ion-electron system (eV)
  ---------------------------------------------------
  alpha Z        PSCENC =      3094.29412155
  Ewald energy   TEWEN  =    -37395.71094020
  -Hartree energ DENC   =     -1996.97138695
  -exchange      EXHF   =         0.00000000
  -V(xc)+E(xc)   XCENC  =      3119.53445996
  PAW double counting   =      8187.82506601    -8433.47535200
  entropy T*S    EENTRO =         0.00000000
  eigenvalues    EBANDS =      4271.59071539
  atomic energy  EATOM  =     31754.39923918
  Solvation  Ediel_sol  =         0.00000000
  ---------------------------------------------------
  free energy    TOTEN  =      2601.48592295 eV

  energy without entropy =     2601.48592295  energy(sigma->0) =     2601.48592295


--------------------------------------------------------------------------------------------------------




--------------------------------------- Iteration      1(   2)  ---------------------------------------


     EDDAV:  cpu time    4.2876: real time    4.3006
       DOS:  cpu time    0.0007: real time    0.0007
    --------------------------------------------
      LOOP:  cpu time    4.2883: real time    4.3013

 eigenvalue-minimisations  :  3120
 total energy-change (2. order) :-0.4285650E+04  (-0.4047464E+04)
 number of electron     861.0000000 magnetization     215.0000000
 augmentation part      861.0000000 magnetization     215.0000000

 Free energy of the ion-electron system (eV)
  ---------------------------------------------------
  alpha Z        PSCENC =      3094.29412155
  Ewald energy   TEWEN  =    -37395.71094020
  -Hartree energ DENC   =     -1996.97138695
  -exchange      EXHF   =         0.00000000
  -V(xc)+E(xc)   XCENC  =      3119.53445996
  PAW double counting   =      8187.82506601    -8433.47535200
  entropy T*S    EENTRO =         0.00000000
  eigenvalues    EBANDS =       -14.05938248
  atomic energy  EATOM  =     31754.39923918
  Solvation  Ediel_sol  =         0.00000000
  ---------------------------------------------------
  free energy    TOTEN  =     -1684.16417492 eV

  energy without entropy =    -1684.16417492  energy(sigma->0) =    -1684.16417492


--------------------------------------------------------------------------------------------------------




--------------------------------------- Iteration      1(   3)  ---------------------------------------


     EDDAV:  cpu time    4.5550: real time    4.5675
       DOS:  cpu time    0.0006: real time    0.0006
    --------------------------------------------
      LOOP:  cpu time    4.5556: real time    4.5681

 eigenvalue-minimisations  :  3352
 total energy-change (2. order) :-0.2272907E+03  (-0.2247966E+03)
 number of electron     861.0000000 magnetization     215.0000000
 augmentation part      861.0000000 magnetization     215.0000000

 Free energy of the ion-electron system (eV)
  ---------------------------------------------------
  alpha Z        PSCENC =      3094.29412155
  Ewald energy   TEWEN  =    -37395.71094020
  -Hartree energ DENC   =     -1996.97138695
  -exchange      EXHF   =         0.00000000
  -V(xc)+E(xc)   XCENC  =      3119.53445996
  PAW double counting   =      8187.82506601    -8433.47535200
  entropy T*S    EENTRO =         0.00000000
  eigenvalues    EBANDS =      -241.35011078
  atomic energy  EATOM  =     31754.39923918
  Solvation  Ediel_sol  =         0.00000000
  ---------------------------------------------------
  free energy    TOTEN  =     -1911.45490322 eV

  energy without entropy =    -1911.45490322  energy(sigma->0) =    -1911.45490322


--------------------------------------------------------------------------------------------------------




--------------------------------------- Iteration      1(   4)  ---------------------------------------


     EDDAV:  cpu time    4.5133: real time    4.5255
       DOS:  cpu time    0.0007: real time    0.0007
    --------------------------------------------
      LOOP:  cpu time    4.5140: real time    4.5262

 eigenvalue-minimisations  :  3344
 total energy-change (2. order) :-0.3774249E+01  (-0.3754456E+01)
 number of electron     861.0000000 magnetization     215.0000000
 augmentation part      861.0000000 magnetization     215.0000000

 Free energy of the ion-electron system (eV)
  ---------------------------------------------------
  alpha Z        PSCENC =      3094.29412155
  Ewald energy   TEWEN  =    -37395.71094020
  -Hartree energ DENC   =     -1996.97138695
  -exchange      EXHF   =         0.00000000
  -V(xc)+E(xc)   XCENC  =      3119.53445996
  PAW double counting   =      8187.82506601    -8433.47535200
  entropy T*S    EENTRO =         0.00000000
  eigenvalues    EBANDS =      -245.12435932
  atomic energy  EATOM  =     31754.39923918
  Solvation  Ediel_sol  =         0.00000000
  ---------------------------------------------------
  free energy    TOTEN  =     -1915.22915176 eV

  energy without entropy =    -1915.22915176  energy(sigma->0) =    -1915.22915176


--------------------------------------------------------------------------------------------------------




--------------------------------------- Iteration      1(   5)  ---------------------------------------


     EDDAV:  cpu time    4.5319: real time    4.5431
       DOS:  cpu time    0.0007: real time    0.0007
    CHARGE:  cpu time    0.0520: real time    0.0522
    MIXING:  cpu time    0.0018: real time    0.0024
    --------------------------------------------
      LOOP:  cpu time    4.5863: real time    4.5983

 eigenvalue-minimisations  :  3344
 total energy-change (2. order) :-0.8776858E-01  (-0.8763160E-01)
 number of electron     861.9999006 magnetization     127.4007699
 augmentation part       21.8480215 magnetization     125.4561174

 Broyden mixing:
  rms(total) = 0.86730E+01    rms(broyden)= 0.86723E+01
  rms(prec ) = 0.93940E+01
  weight for this iteration     100.00

 Free energy of the ion-electron system (eV)
  ---------------------------------------------------
  alpha Z        PSCENC =      3094.29412155
  Ewald energy   TEWEN  =    -37395.71094020
  -Hartree energ DENC   =     -1996.97138695
  -exchange      EXHF   =         0.00000000
  -V(xc)+E(xc)   XCENC  =      3119.53445996
  PAW double counting   =      8187.82506601    -8433.47535200
  entropy T*S    EENTRO =         0.00000000
  eigenvalues    EBANDS =      -245.21212790
  atomic energy  EATOM  =     31754.39923918
  Solvation  Ediel_sol  =         0.00000000
  ---------------------------------------------------
  free energy    TOTEN  =     -1915.31692034 eV

  energy without entropy =    -1915.31692034  energy(sigma->0) =    -1915.31692034


--------------------------------------------------------------------------------------------------------




--------------------------------------- Iteration      1(   6)  ---------------------------------------


    POTLOK:  cpu time    0.0438: real time    0.0456
    SETDIJ:  cpu time    0.6231: real time    0.6246
     EDDAV:  cpu time    4.0990: real time    4.1090
       DOS:  cpu time    0.0008: real time    0.0008
    CHARGE:  cpu time    0.0539: real time    0.0541
    MIXING:  cpu time    0.0018: real time    0.0019
    --------------------------------------------
      LOOP:  cpu time    4.8224: real time    4.8360

 eigenvalue-minimisations  :  2976
 total energy-change (2. order) : 0.1637070E+02  (-0.9033245E+01)
 number of electron     861.9999028 magnetization      56.2014643
 augmentation part       21.3295320 magnetization      53.8915049

 Broyden mixing:
  rms(total) = 0.46623E+01    rms(broyden)= 0.46623E+01
  rms(prec ) = 0.50579E+01
  weight for this iteration     100.00

 eigenvalues of (default mixing * dielectric matrix)
  average eigenvalue GAMMA=   0.9710
  0.9710

 Free energy of the ion-electron system (eV)
  ---------------------------------------------------
  alpha Z        PSCENC =      3094.29412155
  Ewald energy   TEWEN  =    -37395.71094020
  -Hartree energ DENC   =     -2413.74109478
  -exchange      EXHF   =         0.00000000
  -V(xc)+E(xc)   XCENC  =      3151.37373021
  PAW double counting   =     10682.58736429   -10945.84384415
  entropy T*S    EENTRO =         0.00000000
  eigenvalues    EBANDS =       173.69520130
  atomic energy  EATOM  =     31754.39923918
  Solvation  Ediel_sol  =         0.00000000
  ---------------------------------------------------
  free energy    TOTEN  =     -1898.94622261 eV

  energy without entropy =    -1898.94622261  energy(sigma->0) =    -1898.94622261


--------------------------------------------------------------------------------------------------------




--------------------------------------- Iteration      1(   7)  ---------------------------------------


    POTLOK:  cpu time    0.0423: real time    0.0445
    SETDIJ:  cpu time    0.6271: real time    0.6286
     EDDAV:  cpu time    4.0331: real time    4.0429
       DOS:  cpu time    0.0007: real time    0.0007
    CHARGE:  cpu time    0.0513: real time    0.0514
    MIXING:  cpu time    0.0015: real time    0.0015
    --------------------------------------------
      LOOP:  cpu time    4.7560: real time    4.7695

 eigenvalue-minimisations  :  2920
 total energy-change (2. order) :-0.3032243E+02  (-0.5943314E+01)
 number of electron     861.9999045 magnetization       8.0738631
 augmentation part       20.9168872 magnetization       6.0766015

 Broyden mixing:
  rms(total) = 0.20054E+01    rms(broyden)= 0.20054E+01
  rms(prec ) = 0.21262E+01
  weight for this iteration     100.00

 eigenvalues of (default mixing * dielectric matrix)
  average eigenvalue GAMMA=   1.5163
  0.7952  2.2374

 Free energy of the ion-electron system (eV)
  ---------------------------------------------------
  alpha Z        PSCENC =      3094.29412155
  Ewald energy   TEWEN  =    -37395.71094020
  -Hartree energ DENC   =     -2753.85095070
  -exchange      EXHF   =         0.00000000
  -V(xc)+E(xc)   XCENC  =      3160.42225683
  PAW double counting   =     12817.55360730   -13091.31523943
  entropy T*S    EENTRO =         0.00000000
  eigenvalues    EBANDS =       484.93924864
  atomic energy  EATOM  =     31754.39923918
  Solvation  Ediel_sol  =         0.00000000
  ---------------------------------------------------
  free energy    TOTEN  =     -1929.26865682 eV

  energy without entropy =    -1929.26865682  energy(sigma->0) =    -1929.26865682


--------------------------------------------------------------------------------------------------------




--------------------------------------- Iteration      1(   8)  ---------------------------------------


    POTLOK:  cpu time    0.0412: real time    0.0415
    SETDIJ:  cpu time    0.6236: real time    0.6251
     EDDAV:  cpu time    4.2055: real time    4.2158
       DOS:  cpu time    0.0008: real time    0.0008
    CHARGE:  cpu time    0.0524: real time    0.0525
    MIXING:  cpu time    0.0015: real time    0.0015
    --------------------------------------------
      LOOP:  cpu time    4.9249: real time    4.9371

 eigenvalue-minimisations  :  3080
 total energy-change (2. order) :-0.4911444E+01  (-0.9416727E+00)
 number of electron     861.9999055 magnetization       4.5535559
 augmentation part       20.7058844 magnetization       2.6619419

 Broyden mixing:
  rms(total) = 0.37992E+00    rms(broyden)= 0.37979E+00
  rms(prec ) = 0.40737E+00
  weight for this iteration     100.00

 eigenvalues of (default mixing * dielectric matrix)
  average eigenvalue GAMMA=   1.3184
  2.3299  0.9042  0.7211

 Free energy of the ion-electron system (eV)
  ---------------------------------------------------
  alpha Z        PSCENC =      3094.29412155
  Ewald energy   TEWEN  =    -37395.71094020
  -Hartree energ DENC   =     -2965.83983690
  -exchange      EXHF   =         0.00000000
  -V(xc)+E(xc)   XCENC  =      3178.14322941
  PAW double counting   =     14254.87025048   -14533.35090184
  entropy T*S    EENTRO =         0.00000000
  eigenvalues    EBANDS =       679.01473778
  atomic energy  EATOM  =     31754.39923918
  Solvation  Ediel_sol  =         0.00000000
  ---------------------------------------------------
  free energy    TOTEN  =     -1934.18010052 eV

  energy without entropy =    -1934.18010052  energy(sigma->0) =    -1934.18010052


--------------------------------------------------------------------------------------------------------




--------------------------------------- Iteration      1(   9)  ---------------------------------------


    POTLOK:  cpu time    0.0412: real time    0.0415
    SETDIJ:  cpu time    0.6245: real time    0.6260
     EDDAV:  cpu time    4.3045: real time    4.3150
       DOS:  cpu time    0.0008: real time    0.0008
    CHARGE:  cpu time    0.0530: real time    0.0531
    MIXING:  cpu time    0.0016: real time    0.0016
    --------------------------------------------
      LOOP:  cpu time    5.0256: real time    5.0380

 eigenvalue-minimisations  :  3136
 total energy-change (2. order) :-0.1390100E+00  (-0.4525863E-01)
 number of electron     861.9999054 magnetization       2.1920159
 augmentation part       20.7210623 magnetization       0.2729432

 Broyden mixing:
  rms(total) = 0.19613E+00    rms(broyden)= 0.19612E+00
  rms(prec ) = 0.21192E+00
  weight for this iteration     100.00

 eigenvalues of (default mixing * dielectric matrix)
  average eigenvalue GAMMA=   1.3420
  2.3721  1.5089  0.8269  0.6602

 Free energy of the ion-electron system (eV)
  ---------------------------------------------------
  alpha Z        PSCENC =      3094.29412155
  Ewald energy   TEWEN  =    -37395.71094020
  -Hartree energ DENC   =     -2958.56599176
  -exchange      EXHF   =         0.00000000
  -V(xc)+E(xc)   XCENC  =      3177.43237864
  PAW double counting   =     14279.46307220   -14556.51798718
  entropy T*S    EENTRO =         0.00000000
  eigenvalues    EBANDS =       670.88699705
  atomic energy  EATOM  =     31754.39923918
  Solvation  Ediel_sol  =         0.00000000
  ---------------------------------------------------
  free energy    TOTEN  =     -1934.31911052 eV

  energy without entropy =    -1934.31911052  energy(sigma->0) =    -1934.31911052


--------------------------------------------------------------------------------------------------------




--------------------------------------- Iteration      1(  10)  ---------------------------------------


    POTLOK:  cpu time    0.0414: real time    0.0446
    SETDIJ:  cpu time    0.6267: real time    0.6283
     EDDAV:  cpu time    4.2477: real time    4.2583
       DOS:  cpu time    0.0007: real time    0.0007
    CHARGE:  cpu time    0.0517: real time    0.0518
    MIXING:  cpu time    0.0021: real time    0.0021
    --------------------------------------------
      LOOP:  cpu time    4.9703: real time    4.9857

 eigenvalue-minimisations  :  3120
 total energy-change (2. order) : 0.1304700E-01  (-0.1784244E-01)
 number of electron     861.9999054 magnetization       1.8514432
 augmentation part       20.7348691 magnetization      -0.0318541

 Broyden mixing:
  rms(total) = 0.54508E-01    rms(broyden)= 0.54498E-01
  rms(prec ) = 0.58492E-01
  weight for this iteration     100.00

 eigenvalues of (default mixing * dielectric matrix)
  average eigenvalue GAMMA=   1.3558
  2.4649  2.0411  0.8841  0.7662  0.6226

 Free energy of the ion-electron system (eV)
  ---------------------------------------------------
  alpha Z        PSCENC =      3094.29412155
  Ewald energy   TEWEN  =    -37395.71094020
  -Hartree energ DENC   =     -2950.48339257
  -exchange      EXHF   =         0.00000000
  -V(xc)+E(xc)   XCENC  =      3176.69003212
  PAW double counting   =     14281.53726560   -14557.16144635
  entropy T*S    EENTRO =         0.00000000
  eigenvalues    EBANDS =       662.12905714
  atomic energy  EATOM  =     31754.39923918
  Solvation  Ediel_sol  =         0.00000000
  ---------------------------------------------------
  free energy    TOTEN  =     -1934.30606352 eV

  energy without entropy =    -1934.30606352  energy(sigma->0) =    -1934.30606352


--------------------------------------------------------------------------------------------------------




--------------------------------------- Iteration      1(  11)  ---------------------------------------


    POTLOK:  cpu time    0.0410: real time    0.0414
    SETDIJ:  cpu time    0.6231: real time    0.6246
     EDDAV:  cpu time    4.2991: real time    4.3099
       DOS:  cpu time    0.0008: real time    0.0008
    CHARGE:  cpu time    0.0520: real time    0.0521
    MIXING:  cpu time    0.0017: real time    0.0017
    --------------------------------------------
      LOOP:  cpu time    5.0176: real time    5.0304

 eigenvalue-minimisations  :  3160
 total energy-change (2. order) : 0.4204709E-02  (-0.1697153E-02)
 number of electron     861.9999054 magnetization       1.9071120
 augmentation part       20.7380842 magnetization       0.0165635

 Broyden mixing:
  rms(total) = 0.16890E-01    rms(broyden)= 0.16887E-01
  rms(prec ) = 0.19695E-01
  weight for this iteration     100.00

 eigenvalues of (default mixing * dielectric matrix)
  average eigenvalue GAMMA=   1.3037
  2.4804  2.0876  1.0831  0.8102  0.7440  0.6170

 Free energy of the ion-electron system (eV)
  ---------------------------------------------------
  alpha Z        PSCENC =      3094.29412155
  Ewald energy   TEWEN  =    -37395.71094020
  -Hartree energ DENC   =     -2949.25621681
  -exchange      EXHF   =         0.00000000
  -V(xc)+E(xc)   XCENC  =      3176.58231712
  PAW double counting   =     14280.19470672   -14555.52282361
  entropy T*S    EENTRO =         0.00000000
  eigenvalues    EBANDS =       660.71773724
  atomic energy  EATOM  =     31754.39923918
  Solvation  Ediel_sol  =         0.00000000
  ---------------------------------------------------
  free energy    TOTEN  =     -1934.30185881 eV

  energy without entropy =    -1934.30185881  energy(sigma->0) =    -1934.30185881


--------------------------------------------------------------------------------------------------------




--------------------------------------- Iteration      1(  12)  ---------------------------------------


    POTLOK:  cpu time    0.0411: real time    0.0430
    SETDIJ:  cpu time    0.6221: real time    0.6236
     EDDAV:  cpu time    4.4950: real time    4.5060
       DOS:  cpu time    0.0006: real time    0.0006
    CHARGE:  cpu time    0.0511: real time    0.0512
    MIXING:  cpu time    0.0017: real time    0.0017
    --------------------------------------------
      LOOP:  cpu time    5.2117: real time    5.2262

 eigenvalue-minimisations  :  3336
 total energy-change (2. order) :-0.8652915E-03  (-0.1148039E-03)
 number of electron     861.9999054 magnetization       1.9620199
 augmentation part       20.7384230 magnetization       0.0707533

 Broyden mixing:
  rms(total) = 0.81746E-02    rms(broyden)= 0.81740E-02
  rms(prec ) = 0.95898E-02
  weight for this iteration     100.00

 eigenvalues of (default mixing * dielectric matrix)
  average eigenvalue GAMMA=   1.3208
  2.4934  2.1469  1.5136  0.9616  0.7968  0.7176  0.6158

 Free energy of the ion-electron system (eV)
  ---------------------------------------------------
  alpha Z        PSCENC =      3094.29412155
  Ewald energy   TEWEN  =    -37395.71094020
  -Hartree energ DENC   =     -2949.73207814
  -exchange      EXHF   =         0.00000000
  -V(xc)+E(xc)   XCENC  =      3176.62795267
  PAW double counting   =     14279.39974648   -14554.71105832
  entropy T*S    EENTRO =         0.00000000
  eigenvalues    EBANDS =       661.13029266
  atomic energy  EATOM  =     31754.39923918
  Solvation  Ediel_sol  =         0.00000000
  ---------------------------------------------------
  free energy    TOTEN  =     -1934.30272411 eV

  energy without entropy =    -1934.30272411  energy(sigma->0) =    -1934.30272411


--------------------------------------------------------------------------------------------------------




--------------------------------------- Iteration      1(  13)  ---------------------------------------


    POTLOK:  cpu time    0.0416: real time    0.0443
    SETDIJ:  cpu time    0.6224: real time    0.6238
     EDDAV:  cpu time    4.3935: real time    4.4056
       DOS:  cpu time    0.0008: real time    0.0008
    CHARGE:  cpu time    0.0522: real time    0.0523
    MIXING:  cpu time    0.0018: real time    0.0018
    --------------------------------------------
      LOOP:  cpu time    5.1122: real time    5.1287

 eigenvalue-minimisations  :  3232
 total energy-change (2. order) :-0.4562906E-03  (-0.7049182E-04)
 number of electron     861.9999054 magnetization       1.9809831
 augmentation part       20.7384164 magnetization       0.0898529

 Broyden mixing:
  rms(total) = 0.36548E-02    rms(broyden)= 0.36542E-02
  rms(prec ) = 0.42400E-02
  weight for this iteration     100.00

 eigenvalues of (default mixing * dielectric matrix)
  average eigenvalue GAMMA=   1.3226
  2.5365  2.2790  1.7991  1.0548  0.8258  0.7800  0.6166  0.6892

 Free energy of the ion-electron system (eV)
  ---------------------------------------------------
  alpha Z        PSCENC =      3094.29412155
  Ewald energy   TEWEN  =    -37395.71094020
  -Hartree energ DENC   =     -2950.29013259
  -exchange      EXHF   =         0.00000000
  -V(xc)+E(xc)   XCENC  =      3176.68014093
  PAW double counting   =     14278.76385086   -14554.06992337
  entropy T*S    EENTRO =         0.00000000
  eigenvalues    EBANDS =       661.63046324
  atomic energy  EATOM  =     31754.39923918
  Solvation  Ediel_sol  =         0.00000000
  ---------------------------------------------------
  free energy    TOTEN  =     -1934.30318040 eV

  energy without entropy =    -1934.30318040  energy(sigma->0) =    -1934.30318040


--------------------------------------------------------------------------------------------------------




--------------------------------------- Iteration      1(  14)  ---------------------------------------


    POTLOK:  cpu time    0.0410: real time    0.0422
    SETDIJ:  cpu time    0.6216: real time    0.6232
     EDDAV:  cpu time    4.3542: real time    4.3650
       DOS:  cpu time    0.0009: real time    0.0009
    CHARGE:  cpu time    0.0516: real time    0.0517
    MIXING:  cpu time    0.0022: real time    0.0022
    --------------------------------------------
      LOOP:  cpu time    5.0715: real time    5.0852

 eigenvalue-minimisations  :  3184
 total energy-change (2. order) :-0.8986875E-04  (-0.1480716E-04)
 number of electron     861.9999054 magnetization       1.9958966
 augmentation part       20.7383352 magnetization       0.1044358

 Broyden mixing:
  rms(total) = 0.19017E-02    rms(broyden)= 0.19015E-02
  rms(prec ) = 0.22324E-02
  weight for this iteration     100.00

 eigenvalues of (default mixing * dielectric matrix)
  average eigenvalue GAMMA=   1.3471
  2.6268  2.3805  1.9165  1.1602  1.1602  0.8356  0.7561  0.6176  0.6702

 Free energy of the ion-electron system (eV)
  ---------------------------------------------------
  alpha Z        PSCENC =      3094.29412155
  Ewald energy   TEWEN  =    -37395.71094020
  -Hartree energ DENC   =     -2950.50993846
  -exchange      EXHF   =         0.00000000
  -V(xc)+E(xc)   XCENC  =      3176.70040233
  PAW double counting   =     14278.52677879   -14553.83374921
  entropy T*S    EENTRO =         0.00000000
  eigenvalues    EBANDS =       661.83081575
  atomic energy  EATOM  =     31754.39923918
  Solvation  Ediel_sol  =         0.00000000
  ---------------------------------------------------
  free energy    TOTEN  =     -1934.30327027 eV

  energy without entropy =    -1934.30327027  energy(sigma->0) =    -1934.30327027


--------------------------------------------------------------------------------------------------------




--------------------------------------- Iteration      1(  15)  ---------------------------------------


    POTLOK:  cpu time    0.0418: real time    0.0453
    SETDIJ:  cpu time    0.6224: real time    0.6240
     EDDAV:  cpu time    3.5381: real time    3.5466
       DOS:  cpu time    0.0008: real time    0.0008
    CHARGE:  cpu time    0.0521: real time    0.0522
    MIXING:  cpu time    0.0026: real time    0.0026
    --------------------------------------------
      LOOP:  cpu time    4.2577: real time    4.2716

 eigenvalue-minimisations  :  2464
 total energy-change (2. order) :-0.2178472E-04  (-0.2814428E-05)
 number of electron     861.9999054 magnetization       2.0002716
 augmentation part       20.7382337 magnetization       0.1088836

 Broyden mixing:
  rms(total) = 0.64608E-03    rms(broyden)= 0.64599E-03
  rms(prec ) = 0.75458E-03
  weight for this iteration     100.00

 eigenvalues of (default mixing * dielectric matrix)
  average eigenvalue GAMMA=   1.3456
  2.7751  2.4345  1.9900  1.2226  1.2226  0.9791  0.8118  0.7366  0.6189  0.6651

 Free energy of the ion-electron system (eV)
  ---------------------------------------------------
  alpha Z        PSCENC =      3094.29412155
  Ewald energy   TEWEN  =    -37395.71094020
  -Hartree energ DENC   =     -2950.69332956
  -exchange      EXHF   =         0.00000000
  -V(xc)+E(xc)   XCENC  =      3176.71728827
  PAW double counting   =     14278.38956316   -14553.70001908
  entropy T*S    EENTRO =         0.00000000
  eigenvalues    EBANDS =       662.00078461
  atomic energy  EATOM  =     31754.39923918
  Solvation  Ediel_sol  =         0.00000000
  ---------------------------------------------------
  free energy    TOTEN  =     -1934.30329205 eV

  energy without entropy =    -1934.30329205  energy(sigma->0) =    -1934.30329205


--------------------------------------------------------------------------------------------------------




--------------------------------------- Iteration      1(  16)  ---------------------------------------


    POTLOK:  cpu time    0.0424: real time    0.0434
    SETDIJ:  cpu time    0.6230: real time    0.6245
     EDDAV:  cpu time    2.6125: real time    2.6188
       DOS:  cpu time    0.0008: real time    0.0008
    --------------------------------------------
      LOOP:  cpu time    3.2786: real time    3.2875

 eigenvalue-minimisations  :  1624
 total energy-change (2. order) :-0.2773813E-05  (-0.5279379E-06)
 number of electron     861.9999054 magnetization       2.0002716
 augmentation part       20.7382337 magnetization       0.1088836

 Free energy of the ion-electron system (eV)
  ---------------------------------------------------
  alpha Z        PSCENC =      3094.29412155
  Ewald energy   TEWEN  =    -37395.71094020
  -Hartree energ DENC   =     -2950.74814950
  -exchange      EXHF   =         0.00000000
  -V(xc)+E(xc)   XCENC  =      3176.72237710
  PAW double counting   =     14278.29700008   -14553.60871200
  entropy T*S    EENTRO =         0.00000000
  eigenvalues    EBANDS =       662.05176896
  atomic energy  EATOM  =     31754.39923918
  Solvation  Ediel_sol  =         0.00000000
  ---------------------------------------------------
  free energy    TOTEN  =     -1934.30329482 eV

  energy without entropy =    -1934.30329482  energy(sigma->0) =    -1934.30329482


--------------------------------------------------------------------------------------------------------




 average (electrostatic) potential at core
  the test charge radii are     0.7089  0.6991
  (the norm of the test charge is              1.0000)
       1 -59.0840       2 -45.5061       3 -45.4482       4 -45.3268       5 -45.4299
       6 -45.4424       7 -45.8264       8 -45.2957       9 -45.4141      10 -45.4586
      11 -45.4599      12 -45.4309      13 -45.4603      14 -45.4332      15 -45.5166
      16 -45.5060      17 -45.4598      18 -45.4283      19 -45.4147      20 -45.4242
      21 -45.3085      22 -45.2235      23 -45.4607      24 -45.4419      25 -45.3765
[...]
    4ORBIT:  cpu time    0.0000: real time    0.0000
 


 total charge     
 
# of ion       s       p       d       tot
------------------------------------------
    1        1.205   2.697   0.000   3.903
    2        0.830   1.755   0.000   2.585
    3        0.830   1.754   0.000   2.584
    4        0.831   1.756   0.000   2.587
    5        0.829   1.748   0.000   2.578
    6        0.830   1.755   0.000   2.585
    7        0.824   1.714   0.000   2.539
    8        0.833   1.761   0.000   2.594
    9        0.831   1.760   0.000   2.591
   10        0.831   1.758   0.000   2.588
   11        0.830   1.754   0.000   2.584
   12        0.831   1.756   0.000   2.587
   13        0.830   1.754   0.000   2.584
   14        0.831   1.756   0.000   2.586
   15        0.830   1.754   0.000   2.584
   16        0.830   1.756   0.000   2.586
   17        0.830   1.756   0.000   2.586
   18        0.831   1.755   0.000   2.586
   19        0.831   1.756   0.000   2.587
   20        0.830   1.755   0.000   2.585
   21        0.831   1.756   0.000   2.587
   22        0.833   1.751   0.000   2.584
   23        0.831   1.756   0.000   2.586
   24        0.831   1.757   0.000   2.588
   25        0.831   1.760   0.000   2.592
   26        0.830   1.753   0.000   2.583
   27        0.829   1.748   0.000   2.577
   28        0.830   1.756   0.000   2.586
   29        0.830   1.756   0.000   2.586
   30        0.830   1.749   0.000   2.579
   31        0.831   1.756   0.000   2.587
   32        0.834   1.772   0.000   2.606
   33        0.830   1.749   0.000   2.579
   34        0.832   1.761   0.000   2.593
   35        0.830   1.750   0.000   2.580
   36        0.831   1.760   0.000   2.591
   37        0.830   1.755   0.000   2.585
   38        0.830   1.753   0.000   2.584
   39        0.832   1.746   0.000   2.578
   40        0.830   1.755   0.000   2.586
   41        0.831   1.756   0.000   2.587
   42        0.830   1.756   0.000   2.586
   43        0.830   1.754   0.000   2.584
   44        0.831   1.759   0.000   2.590
   45        0.830   1.752   0.000   2.582
   46        0.830   1.753   0.000   2.584
   47        0.830   1.749   0.000   2.579
   48        0.830   1.754   0.000   2.584
   49        0.830   1.755   0.000   2.586
   50        0.830   1.753   0.000   2.584
   51        0.831   1.760   0.000   2.590
   52        0.842   1.761   0.000   2.603
   53        0.831   1.756   0.000   2.587
   54        0.831   1.756   0.000   2.586
   55        0.831   1.758   0.000   2.588
   56        0.830   1.753   0.000   2.583
   57        0.831   1.756   0.000   2.586
   58        0.830   1.756   0.000   2.587
   59        0.831   1.756   0.000   2.587
   60        0.830   1.756   0.000   2.587
   61        0.831   1.756   0.000   2.587
   62        0.830   1.754   0.000   2.585
   63        0.831   1.756   0.000   2.587
   64        0.824   1.714   0.000   2.539
   65        0.833   1.761   0.000   2.594
   66        0.829   1.748   0.000   2.578
   67        0.830   1.755   0.000   2.585
   68        0.829   1.748   0.000   2.577
   69        0.830   1.754   0.000   2.584
   70        0.831   1.760   0.000   2.591
   71        0.831   1.758   0.000   2.588
   72        0.831   1.756   0.000   2.587
   73        0.831   1.758   0.000   2.589
   74        0.831   1.757   0.000   2.587
   75        0.831   1.758   0.000   2.589
   76        0.831   1.756   0.000   2.587
   77        0.831   1.758   0.000   2.589
   78        0.831   1.760   0.000   2.591
   79        0.830   1.752   0.000   2.582
   80        0.830   1.754   0.000   2.585
   81        0.833   1.760   0.000   2.593
   82        0.830   1.756   0.000   2.586
   83        0.831   1.756   0.000   2.587
   84        0.830   1.754   0.000   2.585
   85        0.830   1.756   0.000   2.586
   86        0.831   1.755   0.000   2.586
   87        0.834   1.756   0.000   2.589
   88        0.830   1.756   0.000   2.587
   89        0.830   1.755   0.000   2.585
   90        0.830   1.756   0.000   2.586
   91        0.831   1.757   0.000   2.588
   92        0.832   1.761   0.000   2.593
   93        0.830   1.752   0.000   2.582
   94        0.832   1.761   0.000   2.593
   95        0.830   1.750   0.000   2.580
   96        0.834   1.772   0.000   2.606
   97        0.830   1.749   0.000   2.579
   98        0.831   1.756   0.000   2.587
   99        0.831   1.756   0.000   2.587
  100        0.831   1.760   0.000   2.591
  101        0.830   1.755   0.000   2.585
  102        0.829   1.748   0.000   2.578
  103        0.830   1.754   0.000   2.585
  104        0.825   1.714   0.000   2.538
  105        0.829   1.749   0.000   2.578
  106        0.832   1.763   0.000   2.595
  107        0.838   1.736   0.000   2.574
  108        0.831   1.759   0.000   2.590
  109        0.831   1.756   0.000   2.587
  110        0.830   1.754   0.000   2.584
  111        0.831   1.759   0.000   2.591
  112        0.832   1.748   0.000   2.580
  113        0.830   1.756   0.000   2.587
  114        0.831   1.756   0.000   2.587
  115        0.830   1.756   0.000   2.586
  116        0.830   1.755   0.000   2.585
  117        0.830   1.754   0.000   2.584
  118        0.831   1.756   0.000   2.588
  119        0.831   1.757   0.000   2.588
  120        0.832   1.755   0.000   2.587
  121        0.830   1.756   0.000   2.586
  122        0.831   1.757   0.000   2.588
  123        0.830   1.756   0.000   2.587
  124        0.830   1.755   0.000   2.585
  125        0.831   1.755   0.000   2.586
  126        0.834   1.756   0.000   2.589
  127        0.832   1.761   0.000   2.593
  128        0.830   1.752   0.000   2.582
  129        0.830   1.754   0.000   2.584
  130        0.831   1.756   0.000   2.586
  131        0.830   1.754   0.000   2.584
  132        0.831   1.756   0.000   2.586
  133        0.830   1.756   0.000   2.586
  134        0.832   1.760   0.000   2.592
  135        0.831   1.756   0.000   2.587
  136        0.831   1.756   0.000   2.586
  137        0.830   1.755   0.000   2.585
  138        0.830   1.756   0.000   2.586
  139        0.830   1.755   0.000   2.585
  140        0.831   1.756   0.000   2.586
  141        0.830   1.755   0.000   2.586
  142        0.831   1.754   0.000   2.585
  143        0.832   1.760   0.000   2.592
  144        0.831   1.757   0.000   2.587
  145        0.831   1.756   0.000   2.587
  146        0.830   1.755   0.000   2.585
  147        0.830   1.756   0.000   2.586
  148        0.830   1.754   0.000   2.585
  149        0.831   1.761   0.000   2.592
  150        0.833   1.753   0.000   2.586
  151        0.830   1.754   0.000   2.584
  152        0.830   1.756   0.000   2.586
  153        0.830   1.754   0.000   2.584
  154        0.831   1.756   0.000   2.586
  155        0.830   1.754   0.000   2.584
  156        0.831   1.756   0.000   2.587
  157        0.830   1.756   0.000   2.586
  158        0.831   1.755   0.000   2.586
  159        0.830   1.754   0.000   2.584
  160        0.830   1.754   0.000   2.584
  161        0.831   1.756   0.000   2.586
  162        0.830   1.755   0.000   2.585
  163        0.831   1.755   0.000   2.586
  164        0.830   1.756   0.000   2.587
  165        0.831   1.756   0.000   2.587
  166        0.831   1.760   0.000   2.591
  167        0.832   1.755   0.000   2.587
  168        0.831   1.756   0.000   2.586
  169        0.831   1.757   0.000   2.588
  170        0.831   1.756   0.000   2.587
  171        0.833   1.751   0.000   2.584
  172        0.831   1.756   0.000   2.587
  173        0.830   1.755   0.000   2.585
  174        0.831   1.760   0.000   2.592
  175        0.830   1.753   0.000   2.583
  176        0.830   1.754   0.000   2.584
  177        0.831   1.756   0.000   2.587
  178        0.830   1.756   0.000   2.586
  179        0.830   1.755   0.000   2.585
  180        0.830   1.756   0.000   2.587
  181        0.831   1.756   0.000   2.587
  182        0.831   1.757   0.000   2.588
  183        0.832   1.755   0.000   2.587
  184        0.832   1.763   0.000   2.595
  185        0.842   1.761   0.000   2.603
  186        0.830   1.753   0.000   2.583
  187        0.831   1.756   0.000   2.587
  188        0.830   1.756   0.000   2.587
  189        0.833   1.753   0.000   2.586
  190        0.831   1.755   0.000   2.586
  191        0.830   1.756   0.000   2.586
  192        0.830   1.754   0.000   2.584
  193        0.830   1.755   0.000   2.586
  194        0.831   1.756   0.000   2.587
  195        0.830   1.753   0.000   2.584
  196        0.832   1.746   0.000   2.578
  197        0.831   1.759   0.000   2.590
  198        0.830   1.752   0.000   2.582
  199        0.830   1.756   0.000   2.587
  200        0.831   1.756   0.000   2.587
  201        0.830   1.755   0.000   2.586
  202        0.830   1.756   0.000   2.587
  203        0.830   1.753   0.000   2.583
  204        0.831   1.756   0.000   2.586
  205        0.830   1.754   0.000   2.585
  206        0.831   1.756   0.000   2.587
  207        0.830   1.756   0.000   2.586
  208        0.830   1.754   0.000   2.585
  209        0.831   1.756   0.000   2.587
  210        0.830   1.755   0.000   2.585
  211        0.832   1.760   0.000   2.592
  212        0.831   1.757   0.000   2.587
  213        0.831   1.761   0.000   2.592
  214        0.831   1.756   0.000   2.587
  215        0.830   1.756   0.000   2.587
--------------------------------------------------
tot        178.994 378.267   0.000 557.261
 


 magnetization (x)
 
# of ion       s       p       d       tot
------------------------------------------
    1       -0.001   0.001   0.000  -0.000
    2       -0.000  -0.000   0.000  -0.000
    3        0.000   0.000   0.000   0.000
    4       -0.000  -0.001   0.000  -0.002
    5       -0.000  -0.000   0.000  -0.000
    6        0.000   0.000   0.000   0.000
    7        0.000   0.001   0.000   0.001
    8        0.000   0.000   0.000   0.000
    9        0.000   0.000   0.000   0.000
   10        0.000   0.000   0.000   0.000
   11       -0.000  -0.000   0.000  -0.000
   12        0.000   0.001   0.000   0.002
   13       -0.000  -0.000   0.000  -0.000
   14        0.000   0.001   0.000   0.002
   15       -0.000   0.000   0.000   0.000
   16        0.000   0.001   0.000   0.001
   17       -0.000  -0.000   0.000  -0.000
   18        0.000   0.001   0.000   0.001
   19       -0.000  -0.000   0.000  -0.000
   20       -0.000   0.000   0.000   0.000
   21       -0.000  -0.001   0.000  -0.002
   22        0.005   0.019   0.000   0.024
   23       -0.000  -0.000   0.000  -0.000
   24        0.000   0.002   0.000   0.002
   25        0.001   0.003   0.000   0.004
   26        0.000   0.000   0.000   0.000
   27       -0.000  -0.000   0.000  -0.000
   28        0.000  -0.000   0.000  -0.000
   29        0.000   0.001   0.000   0.001
   30        0.001   0.004   0.000   0.005
   31        0.000   0.001   0.000   0.001
   32       -0.002  -0.005   0.000  -0.007
   33        0.001   0.004   0.000   0.005
   34       -0.002  -0.005   0.000  -0.007
   35        0.001   0.004   0.000   0.005
   36       -0.000  -0.001   0.000  -0.001
   37        0.000   0.001   0.000   0.001
   38       -0.000  -0.001   0.000  -0.001
   39        0.005   0.019   0.000   0.024
   40       -0.000  -0.000   0.000  -0.000
   41        0.000   0.002   0.000   0.002
   42       -0.000  -0.000   0.000  -0.000
   43       -0.000   0.000   0.000   0.000
   44        0.001   0.003   0.000   0.004
   45        0.000   0.000   0.000   0.000
   46       -0.002  -0.005   0.000  -0.007
   47        0.001   0.004   0.000   0.005
   48       -0.000  -0.001   0.000  -0.001
   49        0.000   0.001   0.000   0.001
   50       -0.002  -0.005   0.000  -0.007
   51       -0.000  -0.001   0.000  -0.001
   52        0.040   0.280   0.000   0.319
   53        0.000   0.000   0.000   0.000
   54        0.000   0.000   0.000   0.000
   55        0.000   0.000   0.000   0.000
   56       -0.000  -0.001   0.000  -0.001
   57        0.000   0.000   0.000   0.000
   58        0.000  -0.000   0.000  -0.000
   59        0.000   0.000   0.000   0.000
   60        0.000  -0.000   0.000  -0.000
   61        0.000   0.000   0.000   0.000
   62        0.000   0.000   0.000   0.000
   63        0.000   0.000   0.000   0.000
   64        0.000   0.001   0.000   0.001
   65        0.000   0.000   0.000   0.000
   66       -0.000  -0.000   0.000  -0.000
   67        0.000   0.000   0.000   0.000
   68       -0.000  -0.000   0.000  -0.000
   69        0.000   0.000   0.000   0.000
   70        0.000   0.000   0.000   0.000
   71        0.000   0.000   0.000   0.000
   72       -0.000  -0.000   0.000  -0.000
   73        0.000  -0.000   0.000   0.000
   74       -0.000  -0.000   0.000  -0.000
   75        0.000  -0.000   0.000   0.000
   76       -0.000  -0.000   0.000  -0.000
   77        0.000  -0.000   0.000   0.000
   78        0.000   0.000   0.000   0.000
   79       -0.000  -0.001   0.000  -0.001
   80        0.000   0.000   0.000   0.000
   81        0.000   0.000   0.000   0.000
   82        0.000  -0.000   0.000  -0.000
   83        0.000   0.000   0.000   0.000
   84        0.000   0.000   0.000   0.000
   85        0.000   0.000   0.000   0.000
   86       -0.000  -0.001   0.000  -0.002
   87        0.005   0.020   0.000   0.024
   88       -0.000  -0.000   0.000  -0.000
   89       -0.000   0.000   0.000   0.000
   90       -0.000  -0.000   0.000  -0.000
   91        0.000   0.002   0.000   0.002
   92        0.001   0.003   0.000   0.004
   93        0.000   0.000   0.000   0.000
   94       -0.002  -0.005   0.000  -0.007
   95        0.001   0.004   0.000   0.005
   96       -0.002  -0.005   0.000  -0.007
   97        0.001   0.004   0.000   0.005
   98       -0.000  -0.001   0.000  -0.002
   99        0.000   0.001   0.000   0.001
  100       -0.000  -0.001   0.000  -0.001
  101        0.000   0.001   0.000   0.001
  102       -0.000  -0.000   0.000  -0.000
  103        0.000   0.000   0.000   0.000
  104        0.000   0.001   0.000   0.001
  105       -0.000  -0.000   0.000  -0.000
  106       -0.002  -0.009   0.000  -0.012
  107        0.039   0.293   0.000   0.332
  108       -0.003  -0.010   0.000  -0.012
  109       -0.000  -0.000   0.000  -0.000
  110        0.000   0.000   0.000   0.000
  111        0.000   0.002   0.000   0.002
  112        0.004   0.018   0.000   0.022
  113       -0.000  -0.000   0.000  -0.000
  114        0.000   0.002   0.000   0.002
  115       -0.000  -0.000   0.000  -0.000
  116        0.000   0.002   0.000   0.002
  117       -0.000  -0.000   0.000  -0.001
  118        0.001   0.008   0.000   0.009
  119       -0.000  -0.001   0.000  -0.001
  120        0.001   0.008   0.000   0.008
  121       -0.000  -0.000   0.000  -0.000
  122        0.000   0.002   0.000   0.002
  123       -0.000  -0.000   0.000  -0.000
  124       -0.000   0.000   0.000   0.000
  125       -0.000  -0.001   0.000  -0.002
  126        0.005   0.020   0.000   0.024
  127        0.001   0.003   0.000   0.004
  128        0.000   0.000   0.000   0.000
  129       -0.000  -0.000   0.000  -0.000
  130        0.000   0.001   0.000   0.001
  131       -0.000   0.000   0.000   0.000
  132        0.000   0.001   0.000   0.002
  133        0.000   0.001   0.000   0.001
  134       -0.000   0.002   0.000   0.002
  135       -0.000  -0.000   0.000  -0.000
  136        0.000   0.000   0.000   0.000
  137       -0.000  -0.000   0.000  -0.000
  138        0.000   0.000   0.000   0.000
  139       -0.000  -0.000   0.000  -0.000
  140        0.000   0.000   0.000   0.000
  141       -0.000  -0.000   0.000  -0.000
  142       -0.000   0.000   0.000   0.000
  143       -0.000   0.002   0.000   0.002
  144        0.000   0.001   0.000   0.002
  145       -0.000  -0.000   0.000  -0.000
  146        0.000   0.000   0.000   0.000
  147       -0.000  -0.000   0.000  -0.000
  148        0.000   0.000   0.000   0.000
  149        0.000   0.002   0.000   0.002
  150        0.004   0.018   0.000   0.022
  151       -0.000   0.000   0.000   0.000
  152        0.000   0.001   0.000   0.001
  153       -0.000  -0.000   0.000  -0.000
  154        0.000   0.001   0.000   0.002
  155       -0.000  -0.000   0.000  -0.000
  156        0.000   0.001   0.000   0.002
  157       -0.000  -0.000   0.000  -0.000
  158        0.000   0.001   0.000   0.002
  159        0.000   0.000   0.000   0.000
  160       -0.000  -0.000   0.000  -0.000
  161        0.000   0.001   0.000   0.001
  162       -0.000  -0.000   0.000  -0.000
  163        0.001   0.007   0.000   0.009
  164       -0.000  -0.000   0.000  -0.000
  165        0.000   0.002   0.000   0.002
  166       -0.000  -0.001   0.000  -0.001
  167        0.001   0.007   0.000   0.008
  168       -0.000  -0.000   0.000  -0.000
  169        0.000   0.002   0.000   0.002
  170       -0.000  -0.001   0.000  -0.002
  171        0.004   0.019   0.000   0.024
  172       -0.000  -0.000   0.000  -0.000
  173       -0.000   0.000   0.000   0.000
  174        0.001   0.003   0.000   0.004
  175        0.000   0.000   0.000   0.000
  176       -0.000  -0.000   0.000  -0.001
  177        0.001   0.008   0.000   0.009
  178       -0.000  -0.000   0.000  -0.000
  179        0.000   0.002   0.000   0.002
  180       -0.000  -0.000   0.000  -0.000
  181        0.000   0.002   0.000   0.002
  182       -0.000  -0.001   0.000  -0.001
  183        0.001   0.008   0.000   0.008
  184       -0.002  -0.009   0.000  -0.012
  185        0.040   0.280   0.000   0.319
  186       -0.000  -0.000   0.000  -0.001
  187        0.000   0.002   0.000   0.002
  188       -0.000  -0.000   0.000  -0.000
  189        0.004   0.018   0.000   0.022
  190        0.000   0.001   0.000   0.001
  191       -0.000  -0.000   0.000  -0.000
  192       -0.000   0.000   0.000   0.000
  193       -0.000  -0.000   0.000  -0.000
  194        0.000   0.002   0.000   0.002
  195       -0.000  -0.001   0.000  -0.001
  196        0.005   0.019   0.000   0.024
  197        0.001   0.003   0.000   0.004
  198        0.000   0.000   0.000   0.000
  199        0.000  -0.000   0.000  -0.000
  200        0.000   0.000   0.000   0.000
  201       -0.000   0.000   0.000   0.000
  202        0.000  -0.000   0.000  -0.000
  203       -0.000  -0.001   0.000  -0.001
  204        0.000   0.000   0.000   0.000
  205        0.000   0.000   0.000   0.000
  206        0.000   0.000   0.000   0.000
  207       -0.000  -0.000   0.000  -0.000
  208        0.000   0.000   0.000   0.000
  209       -0.000  -0.000   0.000  -0.000
  210        0.000   0.000   0.000   0.000
  211       -0.000   0.002   0.000   0.002
  212        0.000   0.001   0.000   0.002
  213        0.000   0.002   0.000   0.002
  214        0.000   0.000   0.000   0.000
  215        0.000   0.000   0.000   0.000
--------------------------------------------------
tot          0.158   1.098   0.000   1.256
 

 total amount of memory used by VASP MPI-rank0    56906. kBytes
=======================================================================

   base      :      30000. kBytes
   nonlr-proj:       5764. kBytes
   fftplans  :       1766. kBytes
   grid      :       4371. kBytes
   one-center:         55. kBytes
   wavefun   :      14950. kBytes
 
  
  
 General timing and accounting informations for this job:
 ========================================================
  
                  Total CPU time used (sec):       91.940
                            User time (sec):       88.912
                          System time (sec):        3.028
                         Elapsed time (sec):       97.684
  
                   Maximum memory used (kb):      343984.
                   Average memory used (kb):           0.
  
                          Minor page faults:        69514
                          Major page faults:            5
                 Voluntary context switches:         2936
