 vasp.6.3.0 20Jan22 (build Aug  2 2025 20:03:48) complex                         
 executed on              LinuxNV date 2026.04.10  20:54:51
 running on    4 total cores
 distrk:  each k-point on    4 cores,    1 groups
 distr:  one band on NCORE=   1 cores,    4 groups


--------------------------------------------------------------------------------------------------------


 INCAR:
   PREC = Normal
   LREAL = Auto
   EDIFF = 1e-05
   ENCUT = 520.0
   LASPH = True
   NELM = 100
   ISIF = 2
   IBRION = 2
   EDIFFG = -0.01
   NSW = 0
   ISYM = -1
   ISTART = 1
   ISMEAR = -2
   SIGMA = 0.1
   NELECT = 862
   NBANDS = 648
   FERWE = 429*1 1*1 1*1 1*1 216*0
   FERDO = 429*1 1*0 1*1 1*0 216*0
   LDIAG = .FALSE.
   ALGO = Damped
   ISPIN = 2
   LWAVE = True
   LCHARG = True
   LORBIT = 11

 POTCAR:   PAW_PBE N 08Apr2002                    
 POTCAR:   PAW_PBE C 08Apr2002                    
 -----------------------------------------------------------------------------
|                                                                             |
|           W    W    AA    RRRRR   N    N  II  N    N   GGGG   !!!           |
|           W    W   A  A   R    R  NN   N  II  NN   N  G    G  !!!           |
|           W    W  A    A  R    R  N N  N  II  N N  N  G       !!!           |
|           W WW W  AAAAAA  RRRRR   N  N N  II  N  N N  G  GGG   !            |
|           WW  WW  A    A  R   R   N   NN  II  N   NN  G    G                |
|           W    W  A    A  R    R  N    N  II  N    N   GGGG   !!!           |
|                                                                             |
|     You use a magnetic or noncollinear calculation, but did not specify     |
|     the initial magnetic moment with the MAGMOM tag. Note that a            |
|     default of 1 will be used for all atoms. This ferromagnetic setup       |
|     may break the symmetry of the crystal, in particular it may rule        |
|     out finding an antiferromagnetic solution. Thence, we recommend         |
|     setting the initial magnetic moment manually or verifying carefully     |
|     that this magnetic setup is desired.                                    |
|                                                                             |
 -----------------------------------------------------------------------------

 POTCAR:   PAW_PBE N 08Apr2002                    
   VRHFIN =N: s2p3                                                                                  
   LEXCH  = PE                                                                                      
   EATOM  =   264.5486 eV,   19.4438 Ry                                                             
                                                                                                    
   TITEL  = PAW_PBE N 08Apr2002                                                                     
   LULTRA =        F    use ultrasoft PP ?                                                          
   IUNSCR =        0    unscreen: 0-lin 1-nonlin 2-no                                               
   RPACOR =     .000    partial core radius                                                         
   POMASS =   14.001; ZVAL   =    5.000    mass and valenz                                          
   RCORE  =    1.500    outmost cutoff radius                                                       
   RWIGS  =    1.400; RWIGS  =     .741    wigner-seitz radius (au A)                               
   ENMAX  =  400.000; ENMIN  =  300.000 eV                                                          
   ICORE  =        2    local potential                                                             
   LCOR   =        T    correct aug charges                                                         
   LPAW   =        T    paw PP                                                                      
   EAUG   =  627.112                                                                                
   DEXC   =     .000                                                                                
   RMAX   =    2.247    core radius for proj-oper                                                   
   RAUG   =    1.300    factor for augmentation sphere                                              
   RDEP   =    1.514    radius for radial grids                                                     
   QCUT   =   -5.562; QGAM   =   11.124    optimization parameters                                  
                                                                                                    
   Description                                                                                      
     l     E      TYP  RCUT    TYP  RCUT                                                            
     0   .000     23  1.200                                                                         
     0   .000     23  1.200                                                                         
     1   .000     23  1.500                                                                         
     1   .700     23  1.500                                                                         
     2   .000      7  1.500                                                                         
  local pseudopotential read in
  atomic valenz-charges read in
  non local Contribution for L=            0  read in
    real space projection operators read in
  non local Contribution for L=            0  read in
    real space projection operators read in
  non local Contribution for L=            1  read in
    real space projection operators read in
  non local Contribution for L=            1  read in
    real space projection operators read in
    PAW grid and wavefunctions read in
 
   number of l-projection  operators is LMAX  =            4
   number of lm-projection operators is LMMAX =            8
 
 POTCAR:   PAW_PBE C 08Apr2002                    
   VRHFIN =C: s2p2                                                                                  
   LEXCH  = PE                                                                                      
   EATOM  =   147.1560 eV,   10.8157 Ry                                                             
                                                                                                    
   TITEL  = PAW_PBE C 08Apr2002                                                                     
   LULTRA =        F    use ultrasoft PP ?                                                          
   IUNSCR =        0    unscreen: 0-lin 1-nonlin 2-no                                               
   RPACOR =     .000    partial core radius                                                         
   POMASS =   12.011; ZVAL   =    4.000    mass and valenz                                          
   RCORE  =    1.500    outmost cutoff radius                                                       
   RWIGS  =    1.630; RWIGS  =     .863    wigner-seitz radius (au A)                               
   ENMAX  =  400.000; ENMIN  =  300.000 eV                                                          
   ICORE  =        2    local potential                                                             
   LCOR   =        T    correct aug charges                                                         
   LPAW   =        T    paw PP                                                                      
   EAUG   =  644.873                                                                                
   DEXC   =     .000                                                                                
   RMAX   =    2.266    core radius for proj-oper                                                   
   RAUG   =    1.300    factor for augmentation sphere                                              
   RDEP   =    1.501    radius for radial grids                                                     
   RDEPT  =    1.300    core radius for aug-charge                                                  
   QCUT   =   -5.516; QGAM   =   11.032    optimization parameters                                  
                                                                                                    
   Description                                                                                      
     l     E      TYP  RCUT    TYP  RCUT                                                            
     0   .000     23  1.200                                                                         
     0   .000     23  1.200                                                                         
     1   .000     23  1.500                                                                         
     1  2.500     23  1.500                                                                         
     2   .000      7  1.500                                                                         
  local pseudopotential read in
  atomic valenz-charges read in
  non local Contribution for L=            0  read in
    real space projection operators read in
  non local Contribution for L=            0  read in
    real space projection operators read in
  non local Contribution for L=            1  read in
    real space projection operators read in
  non local Contribution for L=            1  read in
    real space projection operators read in
    PAW grid and wavefunctions read in
 
   number of l-projection  operators is LMAX  =            4
   number of lm-projection operators is LMMAX =            8
 
 Optimization of the real space projectors (new method)

 maximal supplied QI-value         = 25.13
 optimisation between [QCUT,QGAM] = [ 11.56, 23.12] = [ 37.43,149.72] Ry 
 Optimized for a Real-space Cutoff    1.25 Angstroem

   l    n(q)    QCUT    max X(q) W(low)/X(q) W(high)/X(q)  e(spline) 
   0      9    11.561     4.511    0.30E-04    0.28E-04    0.49E-07
   0      9    11.561    37.799    0.51E-04    0.16E-03    0.37E-06
   1      8    11.561     2.478    0.16E-04    0.39E-04    0.64E-07
   1      8    11.561    11.620    0.47E-03    0.29E-03    0.82E-06
 Optimization of the real space projectors (new method)

 maximal supplied QI-value         = 25.13
 optimisation between [QCUT,QGAM] = [ 11.56, 23.12] = [ 37.43,149.72] Ry 
 Optimized for a Real-space Cutoff    1.01 Angstroem

   l    n(q)    QCUT    max X(q) W(low)/X(q) W(high)/X(q)  e(spline) 
   0      7    11.561     5.582    0.37E-04    0.15E-03    0.14E-07
   0      7    11.561    69.432    0.33E-03    0.93E-03    0.20E-06
   1      6    11.561     2.780    0.26E-04    0.68E-04    0.38E-07
   1      6    11.561     4.549    0.40E-03    0.28E-03    0.11E-06
 PAW_PBE N 08Apr2002                    :
 energy of atom  1       EATOM= -264.5486
 kinetic energy error for atom=    0.0125 (will be added to EATOM!!)
 PAW_PBE C 08Apr2002                    :
 energy of atom  2       EATOM= -147.1560
 kinetic energy error for atom=    0.0071 (will be added to EATOM!!)
 
 
 POSCAR: x3
  positions in direct lattice
  velocities in cartesian coordinates
 exchange correlation table for  LEXCH =        8
   RHO(1)=    0.500       N(1)  =     2000
   RHO(2)=  100.500       N(2)  =     4000
 


--------------------------------------------------------------------------------------------------------


 ion  position               nearest neighbor table
   1  0.549  0.383  0.549- 104 1.47   7 1.47  64 1.47
   2  0.958  0.792  0.125- 136 1.54 133 1.54  16 1.54  63 1.54
   3  0.375  0.542  0.875-  42 1.54   9 1.54  40 1.54  27 1.54
   4  0.292  0.125  0.791- 126 1.54 171 1.54  31 1.54 158 1.54
   5  0.293  0.624  0.625- 204 1.54   6 1.54 198 1.55  47 1.55
   6  0.375  0.708  0.708- 172 1.54   9 1.54 168 1.54   5 1.54
   7  0.462  0.458  0.625-   1 1.47   8 1.54  33 1.55  47 1.55
   8  0.542  0.543  0.710-   9 1.53   7 1.54  74 1.54  72 1.54
   9  0.459  0.626  0.792-   8 1.53  10 1.54   6 1.54   3 1.54
  10  0.542  0.709  0.875-   9 1.54 211 1.54  28 1.54  58 1.54
  11  0.625  0.791  0.125-  59 1.54  12 1.54  45 1.55 212 1.55
  12  0.708  0.875  0.208-  11 1.54  21 1.54  23 1.54  17 1.54
  13  0.625  0.959  0.958-  53 1.54  14 1.54 175 1.55 212 1.55
  14  0.708  0.042  0.042-  13 1.54  86 1.54  90 1.54  17 1.54
  15  0.792  0.792  0.959-  16 1.54 215 1.54  59 1.54  53 1.54
  16  0.875  0.875  0.042-  15 1.54  17 1.54 137 1.54   2 1.54
  17  0.791  0.958  0.125-  18 1.54  16 1.54  14 1.54  12 1.54
  18  0.875  0.042  0.208-  17 1.54 145 1.54 135 1.54  98 1.54
  19  0.625  0.792  0.458-  29 1.54  67 1.54 165 1.54  20 1.54
  20  0.708  0.875  0.542-  25 1.54  19 1.54  79 1.54  82 1.54
  21  0.625  0.958  0.292- 165 1.54  12 1.54 189 1.54  22 1.54
  22  0.708  0.041  0.375-  25 1.54  98 1.54  21 1.54  94 1.56
  23  0.791  0.792  0.292-  63 1.54  12 1.54  24 1.54  67 1.54
  24  0.875  0.875  0.375- 143 1.54  25 1.54  23 1.54 145 1.54
  25  0.792  0.958  0.458-  22 1.54  20 1.54  24 1.54  26 1.54
  26  0.874  0.042  0.541- 113 1.54  25 1.54 153 1.55 105 1.55
  27  0.293  0.458  0.791- 204 1.54   3 1.54 128 1.55  33 1.55
  28  0.625  0.792  0.792-  53 1.54  75 1.54 173 1.54  10 1.54
  29  0.542  0.708  0.542- 172 1.54  19 1.54  74 1.54  51 1.55
  30  0.541  0.540  0.377-  51 1.53  50 1.55  66 1.55  64 1.55
  31  0.375  0.208  0.875- 180 1.54 178 1.54   4 1.54  36 1.54
  32  0.293  0.291  0.623- 185 1.50 120 1.54  33 1.55 126 1.56
  33  0.377  0.374  0.707-  36 1.53  32 1.55  27 1.55   7 1.55
  34  0.457  0.126  0.623- 185 1.50 167 1.54  35 1.55 171 1.56
  35  0.541  0.210  0.707-  36 1.53  34 1.55 102 1.55 104 1.55
  36  0.459  0.292  0.791-  33 1.53  35 1.53  31 1.54  37 1.55
  37  0.542  0.375  0.875-  88 1.54  42 1.54  72 1.54  36 1.55
  38  0.292  0.458  0.125- 179 1.54 161 1.54 112 1.54  39 1.54
  39  0.375  0.542  0.208-  44 1.54  48 1.54  38 1.54  50 1.56
  40  0.292  0.625  0.958- 206 1.54 161 1.54  41 1.54   3 1.54
  41  0.375  0.708  0.042- 211 1.54  44 1.54  40 1.54 207 1.54
  42  0.458  0.458  0.958-  37 1.54   3 1.54 179 1.54  43 1.54
  43  0.542  0.542  0.042-  44 1.54  42 1.54  56 1.54  58 1.54
  44  0.458  0.625  0.125-  39 1.54  43 1.54  41 1.54  45 1.54
  45  0.541  0.708  0.209- 164 1.54  44 1.54  11 1.55  66 1.55
  46  0.293  0.456  0.457- 107 1.50 120 1.54  47 1.55 196 1.56
  47  0.377  0.540  0.541-  51 1.53  46 1.55   5 1.55   7 1.55
  48  0.292  0.625  0.292-  39 1.54 196 1.54  49 1.54 190 1.54
  49  0.375  0.708  0.375- 188 1.54 164 1.54  48 1.54  51 1.54
  50  0.457  0.456  0.293- 107 1.50 183 1.54  30 1.55  39 1.56
  51  0.459  0.624  0.459-  30 1.53  47 1.53  49 1.54  29 1.55
  52  0.545  0.203  0.369- 106 1.49  96 1.50  94 1.50
  53  0.708  0.875  0.875-  28 1.54  13 1.54  84 1.54  15 1.54
  54  0.708  0.042  0.708- 102 1.54 105 1.54  79 1.54  84 1.55
  55  0.875  0.375  0.875-  78 1.54 134 1.54  60 1.54 199 1.54
  56  0.624  0.458  0.126-  57 1.54  89 1.54  43 1.54 183 1.54
  57  0.708  0.541  0.209-  66 1.54  68 1.54  56 1.54  62 1.55
  58  0.625  0.625  0.959-  59 1.54  73 1.54  43 1.54  10 1.54
  59  0.708  0.708  0.042-  58 1.54  11 1.54  62 1.54  15 1.54
  60  0.792  0.458  0.959-  61 1.54  73 1.54  89 1.54  55 1.54
  61  0.875  0.542  0.042-  60 1.54 129 1.54  62 1.54 131 1.54
  62  0.791  0.625  0.126-  63 1.54  61 1.54  59 1.54  57 1.55
  63  0.875  0.708  0.209-  62 1.54  23 1.54 193 1.54   2 1.54
  64  0.625  0.458  0.462-   1 1.47  65 1.54  97 1.55  30 1.55
  65  0.710  0.543  0.542-  70 1.53  64 1.54  74 1.54  76 1.54
  66  0.625  0.624  0.293-  57 1.54  67 1.54  45 1.55  30 1.55
  67  0.708  0.708  0.375-  19 1.54  70 1.54  23 1.54  66 1.54
  68  0.791  0.458  0.293-  57 1.54  69 1.54  93 1.55  97 1.55
  69  0.875  0.542  0.375- 191 1.54  70 1.54 193 1.54  68 1.54
  70  0.792  0.626  0.459-  65 1.53  71 1.54  67 1.54  69 1.54
  71  0.875  0.709  0.542-  70 1.54 143 1.54  82 1.54 202 1.54
  72  0.626  0.459  0.793-  73 1.54  37 1.54  81 1.54   8 1.54
  73  0.709  0.542  0.876-  72 1.54  58 1.54  60 1.54 201 1.54
  74  0.626  0.626  0.626-  75 1.54  29 1.54  65 1.54   8 1.54
  75  0.709  0.709  0.709-  74 1.54  28 1.54  82 1.54 201 1.54
  76  0.793  0.459  0.626-  77 1.54 101 1.54  81 1.54  65 1.54
  77  0.876  0.542  0.709-  76 1.54 202 1.54 199 1.54 201 1.54
  78  0.792  0.292  0.792-  81 1.53  55 1.54  80 1.54 103 1.54
  79  0.624  0.959  0.624-  54 1.54  20 1.54 173 1.54 167 1.54
  80  0.875  0.209  0.708- 123 1.54  78 1.54 121 1.54 105 1.54
  81  0.710  0.376  0.710-  78 1.53 104 1.54  72 1.54  76 1.54
  82  0.792  0.792  0.625-  83 1.54  75 1.54  20 1.54  71 1.54
  83  0.875  0.875  0.708-  82 1.54 153 1.54  84 1.54 151 1.54
  84  0.791  0.959  0.791-  85 1.54  83 1.54  53 1.54  54 1.55
  85  0.875  0.042  0.875-  84 1.54  90 1.54 121 1.54 137 1.54
  86  0.625  0.125  0.125- 181 1.54  14 1.54 189 1.54  87 1.54
  87  0.708  0.209  0.208-  92 1.54  98 1.54  86 1.54  96 1.56
  88  0.625  0.292  0.958-  37 1.54 103 1.54 181 1.54  89 1.54
  89  0.708  0.375  0.042-  92 1.54  88 1.54  56 1.54  60 1.54
  90  0.791  0.125  0.958-  85 1.54  14 1.54  91 1.54 103 1.54
  91  0.875  0.208  0.042- 134 1.54  92 1.54  90 1.54 135 1.54
  92  0.792  0.292  0.125-  87 1.54  89 1.54  91 1.54  93 1.54
  93  0.874  0.375  0.209- 115 1.54  92 1.54 129 1.55  68 1.55
  94  0.623  0.126  0.457-  52 1.50 167 1.54  95 1.55  22 1.56
  95  0.707  0.210  0.541- 100 1.53  94 1.55 105 1.55 104 1.55
  96  0.623  0.291  0.293-  52 1.50 183 1.54  97 1.55  87 1.56
  97  0.707  0.374  0.377- 100 1.53  96 1.55  68 1.55  64 1.55
  98  0.791  0.125  0.292-  87 1.54  22 1.54  99 1.54  18 1.54
  99  0.875  0.208  0.375- 113 1.54 115 1.54  98 1.54 100 1.54
 100  0.791  0.292  0.459-  97 1.53  95 1.53  99 1.54 101 1.55
 101  0.875  0.375  0.542- 123 1.54 191 1.54  76 1.54 100 1.55
 102  0.625  0.126  0.791-  54 1.54 103 1.54 175 1.55  35 1.55
 103  0.708  0.209  0.875-  88 1.54  78 1.54  90 1.54 102 1.54
 104  0.625  0.296  0.625-   1 1.47  81 1.54  95 1.55  35 1.55
 105  0.791  0.126  0.625-  54 1.54  80 1.54  26 1.55  95 1.55
 106  0.459  0.125  0.292-  52 1.49 177 1.54 163 1.54 189 1.55
 107  0.369  0.378  0.369- 108 1.49  46 1.50  50 1.50
 108  0.292  0.292  0.292- 107 1.49 177 1.54 118 1.54 112 1.55
 109  0.125  0.125  0.958- 110 1.54 158 1.54 122 1.54 138 1.54
 110  0.208  0.208  0.041- 109 1.54 111 1.54 176 1.54 178 1.54
 111  0.124  0.292  0.124- 112 1.53 132 1.54 110 1.54 159 1.54
 112  0.207  0.374  0.207- 111 1.53 195 1.54  38 1.54 108 1.55
 113  0.958  0.125  0.458-  26 1.54  99 1.54 114 1.54 146 1.54
 114  0.042  0.208  0.541- 125 1.54 113 1.54 123 1.54 119 1.54
 115  0.958  0.292  0.292-  93 1.54  99 1.54 116 1.54 159 1.54
 116  0.042  0.375  0.375- 195 1.54 115 1.54 191 1.54 119 1.54
 117  0.125  0.125  0.292- 118 1.54 142 1.54 146 1.54 159 1.54
 118  0.209  0.208  0.375- 119 1.54 117 1.54 184 1.54 108 1.54
 119  0.125  0.291  0.458- 118 1.54 120 1.54 116 1.54 114 1.54
 120  0.209  0.374  0.541-  46 1.54  32 1.54 119 1.54 203 1.54
 121  0.958  0.125  0.791-  85 1.54 154 1.54 122 1.54  80 1.54
 122  0.042  0.208  0.875- 134 1.54 127 1.54 121 1.54 109 1.54
 123  0.958  0.292  0.625- 101 1.54  80 1.54 114 1.54 124 1.54
 124  0.042  0.375  0.708- 127 1.54 123 1.54 203 1.54 199 1.54
 125  0.125  0.125  0.625- 114 1.54 154 1.54 150 1.54 126 1.54
 126  0.208  0.209  0.708- 127 1.54   4 1.54 125 1.54  32 1.56
 127  0.125  0.292  0.792- 126 1.54 124 1.54 122 1.54 128 1.54
 128  0.209  0.375  0.874- 178 1.54 127 1.54 160 1.55  27 1.55
 129  0.958  0.458  0.125-  61 1.54 130 1.54  93 1.55 132 1.55
 130  0.042  0.541  0.208- 129 1.54 195 1.54 193 1.54 162 1.54
 131  0.959  0.625  0.959- 133 1.54 215 1.54 200 1.54  61 1.54
 132  0.041  0.375  0.041- 111 1.54 134 1.54 129 1.55 160 1.55
 133  0.042  0.708  0.042- 131 1.54 162 1.54   2 1.54 139 1.54
 134  0.958  0.292  0.958- 132 1.54  55 1.54 122 1.54  91 1.54
 135  0.958  0.125  0.125- 159 1.54  18 1.54  91 1.54 138 1.54
 136  0.042  0.875  0.208-   2 1.54 145 1.54 147 1.54 141 1.54
 137  0.958  0.958  0.958- 138 1.54 152 1.54  16 1.54  85 1.54
 138  0.042  0.042  0.042- 137 1.54 135 1.54 109 1.54 141 1.54
 139  0.125  0.792  0.958- 140 1.54 133 1.54 152 1.54 206 1.54
 140  0.208  0.875  0.042- 139 1.54 209 1.54 207 1.54 141 1.54
 141  0.125  0.958  0.125- 142 1.54 140 1.54 136 1.54 138 1.54
 142  0.208  0.042  0.208- 141 1.54 186 1.54 117 1.54 176 1.54
 143  0.958  0.792  0.458- 144 1.54  71 1.54  24 1.54 194 1.54
 144  0.041  0.875  0.541- 149 1.54 143 1.54 153 1.55 155 1.55
 145  0.958  0.958  0.292- 146 1.54  18 1.54  24 1.54 136 1.54
 146  0.041  0.042  0.375- 145 1.54 149 1.54 117 1.54 113 1.54
 147  0.125  0.791  0.292- 148 1.54 190 1.54 194 1.54 136 1.54
 148  0.208  0.875  0.375- 147 1.54 149 1.54 186 1.54 188 1.54
 149  0.124  0.958  0.458- 150 1.53 144 1.54 146 1.54 148 1.54
 150  0.207  0.041  0.541- 149 1.53 170 1.54 125 1.54 184 1.55
 151  0.959  0.792  0.792- 152 1.54 215 1.54 214 1.54  83 1.54
 152  0.042  0.875  0.875- 151 1.54 157 1.54 137 1.54 139 1.54
 153  0.958  0.959  0.625-  83 1.54 154 1.54  26 1.55 144 1.55
 154  0.042  0.042  0.708- 153 1.54 125 1.54 121 1.54 157 1.54
 155  0.125  0.791  0.625- 214 1.54 156 1.54 198 1.55 144 1.55
 156  0.208  0.875  0.708- 155 1.54 170 1.54 168 1.54 157 1.54
 157  0.125  0.958  0.791- 158 1.54 152 1.54 154 1.54 156 1.54
 158  0.208  0.042  0.875- 157 1.54 209 1.54 109 1.54   4 1.54
 159  0.041  0.208  0.208- 135 1.54 111 1.54 117 1.54 115 1.54
 160  0.125  0.458  0.958- 200 1.54 161 1.54 128 1.55 132 1.55
 161  0.208  0.541  0.042- 160 1.54  38 1.54  40 1.54 162 1.54
 162  0.125  0.625  0.125- 190 1.54 133 1.54 161 1.54 130 1.54
 163  0.375  0.042  0.375- 166 1.54 186 1.54 184 1.54 106 1.54
 164  0.458  0.791  0.292-  45 1.54  49 1.54 165 1.54 208 1.54
 165  0.541  0.875  0.375-  21 1.54 164 1.54  19 1.54 166 1.54
 166  0.458  0.959  0.458- 163 1.54 167 1.54 165 1.54 187 1.54
 167  0.541  0.043  0.541-  34 1.54  94 1.54 166 1.54  79 1.54
 168  0.292  0.792  0.791- 206 1.54 156 1.54 169 1.54   6 1.54
 169  0.375  0.875  0.875- 211 1.54 174 1.54 168 1.54 209 1.54
 170  0.292  0.958  0.625- 187 1.54 156 1.54 150 1.54 171 1.54
 171  0.375  0.041  0.708- 174 1.54   4 1.54 170 1.54  34 1.56
 172  0.458  0.792  0.625-  29 1.54   6 1.54 187 1.54 173 1.54
 173  0.542  0.875  0.708- 174 1.54 172 1.54  79 1.54  28 1.54
 174  0.458  0.958  0.792- 171 1.54 173 1.54 169 1.54 175 1.54
 175  0.541  0.042  0.874- 180 1.54 174 1.54  13 1.55 102 1.55
 176  0.292  0.125  0.125- 177 1.54 142 1.54 210 1.54 110 1.54
 177  0.375  0.208  0.209- 182 1.54 176 1.54 106 1.54 108 1.54
 178  0.292  0.292  0.958- 128 1.54  31 1.54 179 1.54 110 1.54
 179  0.375  0.375  0.042-  38 1.54 178 1.54  42 1.54 182 1.54
 180  0.458  0.125  0.958- 175 1.54  31 1.54 181 1.54 210 1.54
 181  0.541  0.208  0.042-  86 1.54 180 1.54  88 1.54 182 1.54
 182  0.458  0.291  0.125- 177 1.54 183 1.54 181 1.54 179 1.54
 183  0.541  0.374  0.209-  50 1.54  96 1.54 182 1.54  56 1.54
 184  0.292  0.125  0.459- 185 1.49 118 1.54 163 1.54 150 1.55
 185  0.369  0.203  0.545- 184 1.49  32 1.50  34 1.50
 186  0.292  0.958  0.292- 163 1.54 142 1.54 208 1.54 148 1.54
 187  0.375  0.875  0.541- 170 1.54 188 1.54 172 1.54 166 1.54
 188  0.292  0.791  0.458- 198 1.54  49 1.54 187 1.54 148 1.54
 189  0.541  0.041  0.207- 213 1.53  21 1.54  86 1.54 106 1.55
 190  0.208  0.708  0.208- 162 1.54 147 1.54 207 1.54  48 1.54
 191  0.958  0.458  0.458- 101 1.54  69 1.54 116 1.54 192 1.54
 192  0.042  0.542  0.542- 197 1.54 191 1.54 203 1.54 202 1.54
 193  0.958  0.625  0.292-  63 1.54 130 1.54 194 1.54  69 1.54
 194  0.042  0.708  0.375- 143 1.54 197 1.54 193 1.54 147 1.54
 195  0.125  0.458  0.292- 116 1.54 130 1.54 112 1.54 196 1.54
 196  0.208  0.542  0.375- 197 1.54  48 1.54 195 1.54  46 1.56
 197  0.125  0.625  0.458- 196 1.54 192 1.54 194 1.54 198 1.54
 198  0.209  0.708  0.541- 188 1.54 197 1.54 155 1.55   5 1.55
 199  0.959  0.458  0.792- 200 1.54  77 1.54 124 1.54  55 1.54
 200  0.042  0.542  0.875- 199 1.54 160 1.54 205 1.54 131 1.54
 201  0.792  0.625  0.792- 215 1.54  75 1.54  77 1.54  73 1.54
 202  0.959  0.625  0.625- 214 1.54  77 1.54 192 1.54  71 1.54
 203  0.126  0.458  0.624- 204 1.54 124 1.54 192 1.54 120 1.54
 204  0.209  0.541  0.708-   5 1.54  27 1.54 203 1.54 205 1.55
 205  0.126  0.625  0.791- 206 1.54 200 1.54 214 1.54 204 1.55
 206  0.209  0.708  0.875- 205 1.54 168 1.54  40 1.54 139 1.54
 207  0.292  0.791  0.125- 208 1.54 190 1.54  41 1.54 140 1.54
 208  0.375  0.875  0.208- 207 1.54 213 1.54 186 1.54 164 1.54
 209  0.292  0.958  0.958- 210 1.54 158 1.54 169 1.54 140 1.54
 210  0.375  0.042  0.041- 209 1.54 213 1.54 176 1.54 180 1.54
 211  0.458  0.792  0.958- 212 1.54  10 1.54 169 1.54  41 1.54
 212  0.541  0.875  0.041- 213 1.54 211 1.54  13 1.55  11 1.55
 213  0.458  0.958  0.124- 189 1.53 212 1.54 210 1.54 208 1.54
 214  0.042  0.708  0.708- 202 1.54 155 1.54 205 1.54 151 1.54
 215  0.875  0.709  0.875- 201 1.54 131 1.54  15 1.54 151 1.54
 

IMPORTANT INFORMATION: All symmetrisations will be switched off!
NOSYMM: (Re-)initialisation of all symmetry stuff for point group C_1.


----------------------------------------------------------------------------------------

                                     Primitive cell                                     

  volume of cell :    1218.9516

  direct lattice vectors                    reciprocal lattice vectors
    10.682237625  0.000000000  0.000000000     0.093613345  0.000000012  0.000000012
    -0.000001422 10.682234764  0.000000000    -0.000000000  0.093613370  0.000000075
    -0.000001422 -0.000008535 10.682234764     0.000000000 -0.000000000  0.093613370

  length of vectors
    10.682237625 10.682234764 10.682234764     0.093613345  0.093613370  0.093613370

  position of ions in fractional coordinates (direct lattice)
     0.549471461  0.382805313  0.549471400
     0.958211253  0.791545473  0.125085570
     0.375443571  0.541575348  0.874857742
     0.291667349  0.125001732  0.791262912
     0.292847637  0.623928205  0.624698360
     0.375443546  0.708191086  0.708240535
     0.462414721  0.458231087  0.624898477
     0.542293956  0.543056576  0.709722470
     0.458858431  0.625627749  0.792293585
     0.541895493  0.708754747  0.875420279
     0.624865378  0.791389024  0.125345458
     0.708076117  0.874859292  0.208482628
     0.624864658  0.958679532  0.958054523
     0.708076786  0.041816084  0.041524349
     0.791646913  0.791868831  0.958534573
     0.874883149  0.875073597  0.041739155
     0.791351993  0.958352547  0.125018310
     0.874695146  0.041628900  0.208295305
     0.624883131  0.791818520  0.458449923
     0.708194803  0.875391114  0.541670253
     0.624644772  0.958259687  0.291575672
     0.708419537  0.041318386  0.375200209
     0.791426533  0.791512523  0.291841510
     0.874919273  0.874843350  0.375091565
     0.791599156  0.958324018  0.458181312
     0.874406958  0.042234600  0.541456292
     0.292847360  0.458032518  0.790595226
     0.625160349  0.792213473  0.791821904
     0.541867795  0.708465110  0.541867793
     0.540937891  0.539995739  0.376647943
     0.375049637  0.208382498  0.874566395
     0.293070254  0.290697244  0.623066225
     0.376647441  0.374271488  0.706661405
     0.457366269  0.126404760  0.623063691
     0.540937097  0.209981087  0.706662365
     0.458526113  0.291860845  0.791111822
     0.541868332  0.375202246  0.875131763
     0.291576467  0.457977718  0.124925432
     0.375202544  0.541751942  0.207986650
     0.291841668  0.624760752  0.958178628
     0.375091644  0.708253428  0.041509585
     0.458450152  0.458216999  0.958484701
     0.541670465  0.541529380  0.042057131
     0.458181041  0.624932547  0.124989728
     0.541455927  0.707741189  0.208900702
     0.293069654  0.456395510  0.457363935
     0.376647963  0.539995730  0.540937869
     0.291667672  0.624594795  0.291667673
     0.375049171  0.707899443  0.375049161
     0.457363948  0.456395506  0.293069642
     0.458526435  0.624443398  0.458526432
     0.544949634  0.202519860  0.369185170
     0.708305675  0.875480345  0.874979889
     0.707862022  0.042465170  0.707862014
     0.875420268  0.375229443  0.875420271
     0.624488910  0.457820649  0.125807270
     0.707862716  0.541197067  0.209131548
     0.625160561  0.625155617  0.958879130
     0.708305648  0.708314128  0.042145742
     0.791821567  0.458494309  0.958879247
     0.874980130  0.541640126  0.042145855
     0.791441401  0.624775693  0.125584952
     0.874817798  0.708151796  0.208620288
     0.624898516  0.458231108  0.462414711
     0.709722470  0.543056593  0.542293961
     0.624698361  0.623928210  0.292847628
     0.708240533  0.708191088  0.375443540
     0.790595233  0.458032523  0.292847355
     0.874857743  0.541575353  0.375443566
     0.792293578  0.625627753  0.458858441
     0.875420274  0.708754744  0.541895500
     0.625675435  0.459009405  0.792611549
     0.708779759  0.542114048  0.875731761
     0.625675486  0.625945509  0.625675500
     0.708779832  0.709066178  0.708779839
     0.792611544  0.459009405  0.625675449
     0.875731753  0.542114049  0.708779773
     0.792293589  0.292192688  0.792293599
     0.624488301  0.959141391  0.624488305
     0.874857065  0.208777126  0.708240995
     0.709722359  0.375628260  0.709722367
     0.791821887  0.792213470  0.625160357
     0.874979887  0.875480338  0.708305677
     0.791441510  0.958919413  0.791441514
     0.874817416  0.041954711  0.874817420
     0.624645201  0.124910096  0.124925013
     0.708418673  0.208534998  0.207985387
     0.624882684  0.291784570  0.958484805
     0.708195831  0.375005113  0.042056493
     0.791426228  0.125176305  0.958178254
     0.874920044  0.208425672  0.041508578
     0.791599660  0.291515595  0.124989607
     0.874408330  0.374790628  0.208900324
     0.623063689  0.126404776  0.457366272
     0.706662389  0.209981091  0.540937093
     0.623066219  0.290697258  0.293070262
     0.706661431  0.374271505  0.376647424
     0.791262904  0.125001738  0.291667349
     0.874566402  0.208382497  0.375049628
     0.791111832  0.291860846  0.458526111
     0.875131764  0.375202251  0.541868338
     0.624698418  0.126182097  0.790595080
     0.708240988  0.208777124  0.874857062
     0.624897499  0.295749583  0.624897483
     0.790595084  0.126182094  0.624698422
     0.458675068  0.125153366  0.291818153
     0.369188299  0.378282611  0.369188278
     0.291816819  0.292007582  0.291816814
     0.124899808  0.124894419  0.958075586
     0.208182691  0.208166300  0.041343764
     0.124354276  0.291536292  0.124354272
     0.207328021  0.374317467  0.207328017
     0.958025206  0.125146705  0.458192902
     0.041677392  0.208352790  0.541417438
     0.958025031  0.291527590  0.291812682
     0.041677975  0.374751369  0.375019697
     0.124974410  0.124995562  0.291661349
     0.208555826  0.208159113  0.374826382
     0.125421397  0.291383121  0.458049896
     0.209238939  0.374388715  0.541052904
     0.958178246  0.125176307  0.791426235
     0.041508577  0.208425674  0.874920048
     0.958484802  0.291784575  0.624882689
     0.042056498  0.375005114  0.708195831
     0.124925000  0.124910082  0.624645204
     0.207985380  0.208534993  0.708418675
     0.124989598  0.291515594  0.791599666
     0.208900336  0.374790627  0.874408321
     0.958054819  0.458199370  0.125345236
     0.041524919  0.541411072  0.208482294
     0.958534768  0.624981289  0.958534773
     0.041392351  0.374810999  0.041392344
     0.041739242  0.708217254  0.041739237
     0.958305620  0.291705651  0.958305626
     0.958075585  0.124894419  0.124899805
     0.041532363  0.874866406  0.208291017
     0.958211091  0.958419976  0.958211088
     0.041532243  0.041625247  0.041532234
     0.125085574  0.791545470  0.958211254
     0.208291021  0.874866408  0.041532361
     0.124881106  0.958215181  0.124881107
     0.208214383  0.041548678  0.208214381
     0.958305571  0.791640177  0.458370762
     0.041392183  0.874726336  0.541476818
     0.958076118  0.958233653  0.291559866
     0.041343711  0.041517017  0.374831968
     0.124899883  0.791410101  0.291559867
     0.208183244  0.874677817  0.374832314
     0.124354010  0.957688288  0.458201491
     0.207328512  0.040662277  0.540983310
     0.958534567  0.791868829  0.791646921
     0.041739158  0.875073595  0.874883147
     0.958054515  0.958679520  0.624864666
     0.041524348  0.041816076  0.708076789
     0.125345453  0.791389015  0.624865382
     0.208482630  0.874859284  0.708076121
     0.125018309  0.958352542  0.791352000
     0.208295315  0.041628900  0.874695144
     0.041343768  0.208166302  0.208182682
     0.125345235  0.458199366  0.958054821
     0.208482299  0.541411071  0.041524916
     0.125018126  0.624686223  0.125018124
     0.374826322  0.041889946  0.374826329
     0.458193018  0.791358841  0.291811960
     0.541416622  0.875012110  0.375019853
     0.458048883  0.958755620  0.458048889
     0.541053046  0.042574552  0.541053038
     0.291841508  0.791512518  0.791426540
     0.375091573  0.874843345  0.874919270
     0.291575667  0.958259673  0.624644775
     0.375200213  0.041318373  0.708419532
     0.458449924  0.791818519  0.624883136
     0.541670256  0.875391117  0.708194804
     0.458181311  0.958324012  0.791599159
     0.541456290  0.042234601  0.874406954
     0.291661350  0.124995566  0.124974413
     0.374826378  0.208159119  0.208555826
     0.291812688  0.291527590  0.958025026
     0.375019702  0.374751368  0.041677973
     0.458192900  0.125146709  0.958025205
     0.541417438  0.208352793  0.041677390
     0.458049892  0.291383126  0.125421398
     0.541052916  0.374388723  0.209238925
     0.291818119  0.125153332  0.458675091
     0.369185116  0.202519782  0.544949650
     0.291660860  0.958308964  0.291660864
     0.375019858  0.875012106  0.541416620
     0.291811960  0.791358839  0.458193022
     0.540983311  0.040662309  0.207328535
     0.208295811  0.708027920  0.208295804
     0.958484700  0.458217001  0.458450158
     0.042057132  0.541529381  0.541670468
     0.958178626  0.624760755  0.291841674
     0.041509588  0.708253431  0.375091640
     0.124925432  0.457977720  0.291576469
     0.207986654  0.541751942  0.375202535
     0.124989724  0.624932547  0.458181046
     0.208900715  0.707741189  0.541455926
     0.958879243  0.458494313  0.791821581
     0.042145859  0.541640126  0.874980130
     0.792100322  0.625434694  0.792100336
     0.958879122  0.625155613  0.625160575
     0.125807274  0.457820649  0.624488915
     0.209131558  0.541197066  0.707862715
     0.125584952  0.624775690  0.791441404
     0.208620287  0.708151792  0.874817799
     0.291559867  0.791410103  0.124899882
     0.374832319  0.874677824  0.208183241
     0.291559871  0.958233656  0.958076122
     0.374831976  0.041517023  0.041343710
     0.458370758  0.791640180  0.958305578
     0.541476825  0.874726347  0.041392187
     0.458201491  0.957688305  0.124354024
     0.042145744  0.708314124  0.708305650
     0.875262303  0.708596360  0.875262306

  ion indices of the primitive-cell ions
   primitive index   ion index
                 1           1
                 2           2
                 3           3
                 4           4
                 5           5
                 6           6
                 7           7
                 8           8
                 9           9
                10          10
                11          11
                12          12
                13          13
                14          14
                15          15
                16          16
                17          17
                18          18
                19          19
                20          20
                21          21
                22          22
                23          23
                24          24
                25          25
                26          26
                27          27
                28          28
                29          29
                30          30
                31          31
                32          32
                33          33
                34          34
                35          35
                36          36
                37          37
                38          38
                39          39
                40          40
                41          41
                42          42
                43          43
                44          44
                45          45
                46          46
                47          47
                48          48
                49          49
                50          50
                51          51
                52          52
                53          53
                54          54
                55          55
                56          56
                57          57
                58          58
                59          59
                60          60
                61          61
                62          62
                63          63
                64          64
                65          65
                66          66
                67          67
                68          68
                69          69
                70          70
                71          71
                72          72
                73          73
                74          74
                75          75
                76          76
                77          77
                78          78
                79          79
                80          80
                81          81
                82          82
                83          83
                84          84
                85          85
                86          86
                87          87
                88          88
                89          89
                90          90
                91          91
                92          92
                93          93
                94          94
                95          95
                96          96
                97          97
                98          98
                99          99
               100         100
               101         101
               102         102
               103         103
               104         104
               105         105
               106         106
               107         107
               108         108
               109         109
               110         110
               111         111
               112         112
               113         113
               114         114
               115         115
               116         116
               117         117
               118         118
               119         119
               120         120
               121         121
               122         122
               123         123
               124         124
               125         125
               126         126
               127         127
               128         128
               129         129
               130         130
               131         131
               132         132
               133         133
               134         134
               135         135
               136         136
               137         137
               138         138
               139         139
               140         140
               141         141
               142         142
               143         143
               144         144
               145         145
               146         146
               147         147
               148         148
               149         149
               150         150
               151         151
               152         152
               153         153
               154         154
               155         155
               156         156
               157         157
               158         158
               159         159
               160         160
               161         161
               162         162
               163         163
               164         164
               165         165
               166         166
               167         167
               168         168
               169         169
               170         170
               171         171
               172         172
               173         173
               174         174
               175         175
               176         176
               177         177
               178         178
               179         179
               180         180
               181         181
               182         182
               183         183
               184         184
               185         185
               186         186
               187         187
               188         188
               189         189
               190         190
               191         191
               192         192
               193         193
               194         194
               195         195
               196         196
               197         197
               198         198
               199         199
               200         200
               201         201
               202         202
               203         203
               204         204
               205         205
               206         206
               207         207
               208         208
               209         209
               210         210
               211         211
               212         212
               213         213
               214         214
               215         215

----------------------------------------------------------------------------------------

 
 
 KPOINTS: Num irrep kpoints: 1                    

Automatic generation of k-mesh.
 Grid dimensions read from file:
 generate k-points for:    1    1    1

 Generating k-lattice:

  Cartesian coordinates                     Fractional coordinates (reciprocal lattice)
     0.093613345  0.000000012  0.000000012     1.000000000  0.000000000 -0.000000000
    -0.000000000  0.093613370  0.000000075     0.000000000  1.000000000  0.000000000
     0.000000000 -0.000000000  0.093613370     0.000000000  0.000000000  1.000000000

  Length of vectors
     0.093613345  0.093613370  0.093613370

  Shift w.r.t. Gamma in fractional coordinates (k-lattice)
     0.000000000  0.000000000  0.000000000

 
 Subroutine IBZKPT returns following result:
 ===========================================
 
 Found      1 irreducible k-points:
 
 Following reciprocal coordinates:
            Coordinates               Weight
  0.000000  0.000000  0.000000      1.000000
 
 Following cartesian coordinates:
            Coordinates               Weight
  0.000000  0.000000  0.000000      1.000000
 


--------------------------------------------------------------------------------------------------------




 Dimension of arrays:
   k-points           NKPTS =      1   k-points in BZ     NKDIM =      1   number of bands    NBANDS=    648
   number of dos      NEDOS =    301   number of ions     NIONS =    215
   non local maximal  LDIM  =      4   non local SUM 2l+1 LMDIM =      8
   total plane-waves  NPLWV = 216000
   max r-space proj   IRMAX =   1489   max aug-charges    IRDMAX=   2380
   dimension x,y,z NGX =    60 NGY =   60 NGZ =   60
   dimension x,y,z NGXF=   120 NGYF=  120 NGZF=  120
   support grid    NGXF=   120 NGYF=  120 NGZF=  120
   ions per type =               1 214
   NGX,Y,Z   is equivalent  to a cutoff of   9.34,  9.34,  9.34 a.u.
   NGXF,Y,Z  is equivalent  to a cutoff of  18.68, 18.68, 18.68 a.u.

 SYSTEM =  unknown system                          
 POSCAR =  x3                                      

 Startparameter for this run:
   NWRITE =      2    write-flag & timer
   PREC   = normal    normal or accurate (medium, high low for compatibility)
   ISTART =      1    job   : 0-new  1-cont  2-samecut
   ICHARG =      0    charge: 1-file 2-atom 10-const
   ISPIN  =      2    spin polarized calculation?
   LNONCOLLINEAR =      F non collinear calculations
   LSORBIT =      F    spin-orbit coupling
   INIWAV =      1    electr: 0-lowe 1-rand  2-diag
   LASPH  =      T    aspherical Exc in radial PAW
 Electronic Relaxation 1
   ENCUT  =  520.0 eV  38.22 Ry    6.18 a.u.  19.86 19.86 19.86*2*pi/ulx,y,z
   ENINI  =  520.0     initial cutoff
   ENAUG  =  644.9 eV  augmentation charge cutoff
   NELM   =    100;   NELMIN=  2; NELMDL=  0     # of ELM steps 
   EDIFF  = 0.1E-04   stopping-criterion for ELM
   LREAL  =      T    real-space projection
   NLSPLINE    = F    spline interpolate recip. space projectors
   LCOMPAT=      F    compatible to vasp.4.4
   GGA_COMPAT  = T    GGA compatible to vasp.4.4-vasp.4.6
   LMAXPAW     = -100 max onsite density
   LMAXMIX     =    2 max onsite mixed and CHGCAR
   VOSKOWN=      0    Vosko Wilk Nusair interpolation
   ROPT   =   -0.00050  -0.00050
 Ionic relaxation
   EDIFFG = -.1E-01   stopping-criterion for IOM
   NSW    =      0    number of steps for IOM
   NBLOCK =      1;   KBLOCK =      1    inner block; outer block 
   IBRION =     -1    ionic relax: 0-MD 1-quasi-New 2-CG
   NFREE  =      1    steps in history (QN), initial steepest desc. (CG)
   ISIF   =      2    stress and relaxation
   IWAVPR =     10    prediction:  0-non 1-charg 2-wave 3-comb
   ISYM   =     -1    0-nonsym 1-usesym 2-fastsym
   LCORR  =      T    Harris-Foulkes like correction to forces

   POTIM  = 0.5000    time-step for ionic-motion
   TEIN   =    0.0    initial temperature
   TEBEG  =    0.0;   TEEND  =   0.0 temperature during run
   SMASS  =  -3.00    Nose mass-parameter (am)
   estimated Nose-frequenzy (Omega)   =  0.10E-29 period in steps = 0.13E+47 mass=  -0.261E-26a.u.
   SCALEE = 1.0000    scale energy and forces
   NPACO  =    256;   APACO  = 10.0  distance and # of slots for P.C.
   PSTRESS=    0.0 pullay stress

  Mass of Ions in am
   POMASS =  14.00 12.01
  Ionic Valenz
   ZVAL   =   5.00  4.00
  Atomic Wigner-Seitz radii
   RWIGS  =  -1.00 -1.00
  virtual crystal weights 
   VCA    =   1.00  1.00
   NELECT =     862.0000    total number of electrons
   NUPDOWN=      -1.0000    fix difference up-down

 DOS related values:
   EMIN   =  10.00;   EMAX   =-10.00  energy-range for DOS
   EFERMI =   0.00
   ISMEAR =    -2;   SIGMA  =   0.10  broadening in eV -4-tet -1-fermi 0-gaus

 Electronic relaxation 2 (details)
   IALGO  =     53    algorithm
   LDIAG  =      F    sub-space diagonalisation (order eigenvalues)
   LSUBROT=      F    optimize rotation matrix (better conditioning)
   TURBO    =      0    0=normal 1=particle mesh
   IRESTART =      0    0=no restart 2=restart with 2 vectors
   NREBOOT  =      0    no. of reboots
   NMIN     =      0    reboot dimension
   EREF     =   0.00    reference energy to select bands
   IMIX   =      4    mixing-type and parameters
     AMIX     =   0.40;   BMIX     =  1.00
     AMIX_MAG =   1.60;   BMIX_MAG =  1.00
     AMIN     =   0.10
     WC   =   100.;   INIMIX=   1;  MIXPRE=   1;  MAXMIX= -45

 Intra band minimization:
   WEIMIN = 0.0000     energy-eigenvalue tresh-hold
   EBREAK =  0.39E-08  absolut break condition
   DEPER  =   0.30     relativ break condition  

   TIME   =   0.40     timestep for ELM

  volume/ion in A,a.u.               =       5.67        38.26
  Fermi-wavevector in a.u.,A,eV,Ry     =   1.458529  2.756220 28.943770  2.127307
  Thomas-Fermi vector in A             =   2.575203
 
 Write flags
   LWAVE        =      T    write WAVECAR
   LDOWNSAMPLE  =      F    k-point downsampling of WAVECAR
   LCHARG       =      T    write CHGCAR
   LVTOT        =      F    write LOCPOT, total local potential
   LVHAR        =      F    write LOCPOT, Hartree potential only
   LELF         =      F    write electronic localiz. function (ELF)
   LORBIT       =     11    0 simple, 1 ext, 2 COOP (PROOUT), +10 PAW based schemes


 Dipole corrections
   LMONO  =      F    monopole corrections only (constant potential shift)
   LDIPOL =      F    correct potential (dipole corrections)
   IDIPOL =      0    1-x, 2-y, 3-z, 4-all directions 
   EPSILON=  1.0000000 bulk dielectric constant

 Exchange correlation treatment:
   GGA     =    --    GGA type
   LEXCH   =     8    internal setting for exchange type
   LIBXC   =     F    Libxc                    
   VOSKOWN =     0    Vosko Wilk Nusair interpolation
   LHFCALC =     F    Hartree Fock is set to
   LHFONE  =     F    Hartree Fock one center treatment
   AEXX    =    0.0000 exact exchange contribution

 Linear response parameters
   LEPSILON=     F    determine dielectric tensor
   LRPA    =     F    only Hartree local field effects (RPA)
   LNABLA  =     F    use nabla operator in PAW spheres
   LVEL    =     F    velocity operator in full k-point grid
   CSHIFT  =0.1000    complex shift for real part using Kramers Kronig
   OMEGAMAX=  -1.0    maximum frequency
   DEG_THRESHOLD= 0.2000000E-02 threshold for treating states as degnerate
   RTIME   =   -0.100 relaxation time in fs
  (WPLASMAI=    0.000 imaginary part of plasma frequency in eV, 0.658/RTIME)
   DFIELD  = 0.0000000 0.0000000 0.0000000 field for delta impulse in time
 
  Optional k-point grid parameters
   LKPOINTS_OPT  =     F    use optional k-point grid
   KPOINTS_OPT_MODE=     1    mode for optional k-point grid
 
 Orbital magnetization related:
   ORBITALMAG=     F  switch on orbital magnetization
   LCHIMAG   =     F  perturbation theory with respect to B field
   DQ        =  0.001000  dq finite difference perturbation B field
   LLRAUG    =     F  two centre corrections for induced B field



--------------------------------------------------------------------------------------------------------


 Static calculation
 charge density and potential will be updated during run
 spin polarized calculation
 Conjugate gradient for all bands (Kresse, et al. variant)
 perform Loewdin sub-space diagonalisation
    ordering is kept fixed
    before iterative eigenvector-optimisation
 modified Broyden-mixing scheme, WC =      100.0
 initial mixing is a Kerker type mixing with AMIX =  0.4000 and BMIX =      1.0000
 Hartree-type preconditioning will be used
 using additional bands           217
 real space projection scheme for non local part
 no Harris-corrections to forces 
 use gradient corrections 
 use of overlap-Matrix (Vanderbilt PP)
 partial occupancies read from INCAR or WAVECAR (fixed during run)


--------------------------------------------------------------------------------------------------------


  energy-cutoff  :      520.00
  volume of cell :     1218.95
      direct lattice vectors                 reciprocal lattice vectors
    10.682237625  0.000000000  0.000000000     0.093613345  0.000000012  0.000000012
    -0.000001422 10.682234764  0.000000000    -0.000000000  0.093613370  0.000000075
    -0.000001422 -0.000008535 10.682234764     0.000000000 -0.000000000  0.093613370

  length of vectors
    10.682237625 10.682234764 10.682234764     0.093613345  0.093613370  0.093613370


 
 old parameters found on file WAVECAR:
  energy-cutoff  :      520.00
  volume of cell :     1218.95
      direct lattice vectors                 reciprocal lattice vectors
    10.682237625  0.000000000  0.000000000     0.093613345  0.000000012  0.000000012
    -0.000001422 10.682234764  0.000000000    -0.000000000  0.093613370  0.000000075
    -0.000001422 -0.000008535 10.682234764     0.000000000 -0.000000000  0.093613370

  length of vectors

 
 k-points in units of 2pi/SCALE and weight: Num irrep kpoints: 1                    
   0.00000000  0.00000000  0.00000000       1.000
 
 k-points in reciprocal lattice and weights: Num irrep kpoints: 1                    
   0.00000000  0.00000000  0.00000000       1.000
 
 position of ions in fractional coordinates (direct lattice) 
   0.54947146  0.38280531  0.54947140
   0.95821125  0.79154547  0.12508557
   0.37544357  0.54157535  0.87485774
   0.29166735  0.12500173  0.79126291
   0.29284764  0.62392821  0.62469836
   0.37544355  0.70819109  0.70824054
   0.46241472  0.45823109  0.62489848
   0.54229396  0.54305658  0.70972247
   0.45885843  0.62562775  0.79229358
   0.54189549  0.70875475  0.87542028
   0.62486538  0.79138902  0.12534546
   0.70807612  0.87485929  0.20848263
   0.62486466  0.95867953  0.95805452
   0.70807679  0.04181608  0.04152435
   0.79164691  0.79186883  0.95853457
   0.87488315  0.87507360  0.04173915
   0.79135199  0.95835255  0.12501831
   0.87469515  0.04162890  0.20829530
   0.62488313  0.79181852  0.45844992
   0.70819480  0.87539111  0.54167025
   0.62464477  0.95825969  0.29157567
   0.70841954  0.04131839  0.37520021
   0.79142653  0.79151252  0.29184151
   0.87491927  0.87484335  0.37509156
   0.79159916  0.95832402  0.45818131
   0.87440696  0.04223460  0.54145629
   0.29284736  0.45803252  0.79059523
   0.62516035  0.79221347  0.79182190
   0.54186779  0.70846511  0.54186779
   0.54093789  0.53999574  0.37664794
   0.37504964  0.20838250  0.87456640
   0.29307025  0.29069724  0.62306622
   0.37664744  0.37427149  0.70666141
   0.45736627  0.12640476  0.62306369
   0.54093710  0.20998109  0.70666236
   0.45852611  0.29186085  0.79111182
   0.54186833  0.37520225  0.87513176
   0.29157647  0.45797772  0.12492543
   0.37520254  0.54175194  0.20798665
   0.29184167  0.62476075  0.95817863
   0.37509164  0.70825343  0.04150958
   0.45845015  0.45821700  0.95848470
   0.54167046  0.54152938  0.04205713
   0.45818104  0.62493255  0.12498973
   0.54145593  0.70774119  0.20890070
   0.29306965  0.45639551  0.45736394
   0.37664796  0.53999573  0.54093787
   0.29166767  0.62459480  0.29166767
   0.37504917  0.70789944  0.37504916
   0.45736395  0.45639551  0.29306964
   0.45852644  0.62444340  0.45852643
   0.54494963  0.20251986  0.36918517
   0.70830568  0.87548035  0.87497989
   0.70786202  0.04246517  0.70786201
   0.87542027  0.37522944  0.87542027
   0.62448891  0.45782065  0.12580727
   0.70786272  0.54119707  0.20913155
   0.62516056  0.62515562  0.95887913
   0.70830565  0.70831413  0.04214574
   0.79182157  0.45849431  0.95887925
   0.87498013  0.54164013  0.04214586
   0.79144140  0.62477569  0.12558495
   0.87481780  0.70815180  0.20862029
   0.62489852  0.45823111  0.46241471
   0.70972247  0.54305659  0.54229396
   0.62469836  0.62392821  0.29284763
   0.70824053  0.70819109  0.37544354
   0.79059523  0.45803252  0.29284735
   0.87485774  0.54157535  0.37544357
   0.79229358  0.62562775  0.45885844
   0.87542027  0.70875474  0.54189550
   0.62567544  0.45900940  0.79261155
   0.70877976  0.54211405  0.87573176
   0.62567549  0.62594551  0.62567550
   0.70877983  0.70906618  0.70877984
   0.79261154  0.45900940  0.62567545
   0.87573175  0.54211405  0.70877977
   0.79229359  0.29219269  0.79229360
   0.62448830  0.95914139  0.62448831
   0.87485707  0.20877713  0.70824099
   0.70972236  0.37562826  0.70972237
   0.79182189  0.79221347  0.62516036
   0.87497989  0.87548034  0.70830568
   0.79144151  0.95891941  0.79144151
   0.87481742  0.04195471  0.87481742
   0.62464520  0.12491010  0.12492501
   0.70841867  0.20853500  0.20798539
   0.62488268  0.29178457  0.95848481
   0.70819583  0.37500511  0.04205649
   0.79142623  0.12517630  0.95817825
   0.87492004  0.20842567  0.04150858
   0.79159966  0.29151559  0.12498961
   0.87440833  0.37479063  0.20890032
   0.62306369  0.12640478  0.45736627
   0.70666239  0.20998109  0.54093709
   0.62306622  0.29069726  0.29307026
   0.70666143  0.37427150  0.37664742
   0.79126290  0.12500174  0.29166735
   0.87456640  0.20838250  0.37504963
   0.79111183  0.29186085  0.45852611
   0.87513176  0.37520225  0.54186834
   0.62469842  0.12618210  0.79059508
   0.70824099  0.20877712  0.87485706
   0.62489750  0.29574958  0.62489748
   0.79059508  0.12618209  0.62469842
   0.45867507  0.12515337  0.29181815
   0.36918830  0.37828261  0.36918828
   0.29181682  0.29200758  0.29181681
   0.12489981  0.12489442  0.95807559
   0.20818269  0.20816630  0.04134376
   0.12435428  0.29153629  0.12435427
   0.20732802  0.37431747  0.20732802
   0.95802521  0.12514671  0.45819290
   0.04167739  0.20835279  0.54141744
   0.95802503  0.29152759  0.29181268
   0.04167798  0.37475137  0.37501970
   0.12497441  0.12499556  0.29166135
   0.20855583  0.20815911  0.37482638
   0.12542140  0.29138312  0.45804990
   0.20923894  0.37438871  0.54105290
   0.95817825  0.12517631  0.79142624
   0.04150858  0.20842567  0.87492005
   0.95848480  0.29178457  0.62488269
   0.04205650  0.37500511  0.70819583
   0.12492500  0.12491008  0.62464520
   0.20798538  0.20853499  0.70841867
   0.12498960  0.29151559  0.79159967
   0.20890034  0.37479063  0.87440832
   0.95805482  0.45819937  0.12534524
   0.04152492  0.54141107  0.20848229
   0.95853477  0.62498129  0.95853477
   0.04139235  0.37481100  0.04139234
   0.04173924  0.70821725  0.04173924
   0.95830562  0.29170565  0.95830563
   0.95807558  0.12489442  0.12489981
   0.04153236  0.87486641  0.20829102
   0.95821109  0.95841998  0.95821109
   0.04153224  0.04162525  0.04153223
   0.12508557  0.79154547  0.95821125
   0.20829102  0.87486641  0.04153236
   0.12488111  0.95821518  0.12488111
   0.20821438  0.04154868  0.20821438
   0.95830557  0.79164018  0.45837076
   0.04139218  0.87472634  0.54147682
   0.95807612  0.95823365  0.29155987
   0.04134371  0.04151702  0.37483197
   0.12489988  0.79141010  0.29155987
   0.20818324  0.87467782  0.37483231
   0.12435401  0.95768829  0.45820149
   0.20732851  0.04066228  0.54098331
   0.95853457  0.79186883  0.79164692
   0.04173916  0.87507360  0.87488315
   0.95805451  0.95867952  0.62486467
   0.04152435  0.04181608  0.70807679
   0.12534545  0.79138901  0.62486538
   0.20848263  0.87485928  0.70807612
   0.12501831  0.95835254  0.79135200
   0.20829531  0.04162890  0.87469514
   0.04134377  0.20816630  0.20818268
   0.12534523  0.45819937  0.95805482
   0.20848230  0.54141107  0.04152492
   0.12501813  0.62468622  0.12501812
   0.37482632  0.04188995  0.37482633
   0.45819302  0.79135884  0.29181196
   0.54141662  0.87501211  0.37501985
   0.45804888  0.95875562  0.45804889
   0.54105305  0.04257455  0.54105304
   0.29184151  0.79151252  0.79142654
   0.37509157  0.87484335  0.87491927
   0.29157567  0.95825967  0.62464477
   0.37520021  0.04131837  0.70841953
   0.45844992  0.79181852  0.62488314
   0.54167026  0.87539112  0.70819480
   0.45818131  0.95832401  0.79159916
   0.54145629  0.04223460  0.87440695
   0.29166135  0.12499557  0.12497441
   0.37482638  0.20815912  0.20855583
   0.29181269  0.29152759  0.95802503
   0.37501970  0.37475137  0.04167797
   0.45819290  0.12514671  0.95802520
   0.54141744  0.20835279  0.04167739
   0.45804989  0.29138313  0.12542140
   0.54105292  0.37438872  0.20923892
   0.29181812  0.12515333  0.45867509
   0.36918512  0.20251978  0.54494965
   0.29166086  0.95830896  0.29166086
   0.37501986  0.87501211  0.54141662
   0.29181196  0.79135884  0.45819302
   0.54098331  0.04066231  0.20732854
   0.20829581  0.70802792  0.20829580
   0.95848470  0.45821700  0.45845016
   0.04205713  0.54152938  0.54167047
   0.95817863  0.62476076  0.29184167
   0.04150959  0.70825343  0.37509164
   0.12492543  0.45797772  0.29157647
   0.20798665  0.54175194  0.37520254
   0.12498972  0.62493255  0.45818105
   0.20890071  0.70774119  0.54145593
   0.95887924  0.45849431  0.79182158
   0.04214586  0.54164013  0.87498013
   0.79210032  0.62543469  0.79210034
   0.95887912  0.62515561  0.62516058
   0.12580727  0.45782065  0.62448892
   0.20913156  0.54119707  0.70786271
   0.12558495  0.62477569  0.79144140
   0.20862029  0.70815179  0.87481780
   0.29155987  0.79141010  0.12489988
   0.37483232  0.87467782  0.20818324
   0.29155987  0.95823366  0.95807612
   0.37483198  0.04151702  0.04134371
   0.45837076  0.79164018  0.95830558
   0.54147682  0.87472635  0.04139219
   0.45820149  0.95768831  0.12435402
   0.04214574  0.70831412  0.70830565
   0.87526230  0.70859636  0.87526231
 
 position of ions in cartesian coordinates  (Angst):
   5.86958339  4.08921153  5.86958249
  10.23583900  8.45547350  1.33619343
   4.01057543  5.78522754  9.34543578
   3.11565863  1.33529110  8.45245619
   3.12826627  6.66494223  6.67317454
   4.01057516  7.56505740  7.56559167
   4.93962239  4.89492671  6.67531223
   5.79291112  5.80105178  7.58142204
   4.90163278  6.68309572  8.46346608
   5.78865417  7.57107712  9.35144494
   6.67495915  8.45380227  1.33896961
   7.56383580  9.34545056  2.22706038
   6.67495004 10.24083165 10.23416334
   7.56384437  0.44668887  0.44357285
   8.45655795  8.45892057 10.23929134
   9.34570839  9.34774125  0.44586745
   8.45340849 10.23734582  1.33547494
   9.34370104  0.44468791  2.22505935
   6.67514832  8.45838741  4.89726971
   7.56510316  9.35112877  5.78624881
   6.67260211 10.23635245  3.11467978
   7.56750524  0.44136950  4.00797671
   8.45420475  8.45512010  3.11751953
   9.34609380  9.34527885  4.00681615
   8.45604828 10.23703823  4.89440034
   9.34062208  0.45115529  5.78396322
   3.12826331  4.89280414  8.44532381
   6.67810915  8.46260354  8.45842747
   5.78835877  7.56798600  5.78835897
   5.77842579  5.76835804  4.02344175
   4.00636780  2.22598330  9.34232355
   3.13064479  3.10529089  6.65573969
   4.02343593  3.99804987  7.54872303
   4.88569410  1.35028001  6.65571262
   5.77841731  2.24306124  7.54873328
   4.89808336  3.11771932  8.45084221
   5.78836450  4.00799100  9.34836295
   3.11468828  4.89222443  1.33448279
   4.00800166  5.78711965  2.22176222
   3.11751980  6.67383285 10.23548905
   4.00681700  7.56572904  0.44341513
   4.89727145  4.89477338 10.23875859
   5.78625179  5.78474361  0.44926414
   4.89439769  6.67567511  1.33516961
   5.78395958  7.56025575  2.23152634
   3.13063839  4.87532008  4.88566893
   4.02344150  5.76835654  5.77842531
   3.11566208  6.67206574  3.11566256
   4.00636283  7.56194484  4.00636319
   4.88566931  4.87532144  3.13063872
   4.89808680  6.67044706  4.89808700
   5.82128067  2.16336154  3.94372266
   7.56628704  9.35207911  9.34674059
   7.56154926  0.45361687  7.56154821
   9.35144555  4.00828153  9.35144486
   6.67093810  4.89054658  1.34390279
   7.56155667  5.78119234  2.23399229
   6.67811141  6.67805089 10.24297198
   7.56628818  7.56637744  0.45021071
   8.45842412  4.89773567 10.24297323
   9.34674484  5.78592663  0.45021192
   8.45436404  6.67399956  1.34152794
   9.34501029  7.56464195  2.22853089
   6.67531313  4.89492832  4.93962251
   7.58142253  5.80105338  5.79291141
   6.67317504  6.66494512  3.12826711
   7.56559213  7.56506025  4.01057603
   8.44532507  4.89280844  3.12826419
   9.34543700  5.78523185  4.01057631
   8.46346672  6.68309862  4.90163359
   9.35144561  7.57107994  5.78865495
   6.68361190  4.90323946  8.46686264
   7.57135180  5.79098206  9.35477226
   6.68361244  6.68649154  6.68361258
   7.57135258  7.57440533  7.57135264
   8.46686332  4.90324088  6.68361203
   9.35477290  5.79098349  7.57135193
   8.46346685  3.12126413  8.46346623
   6.67093017 10.24576818  6.67093069
   9.34542976  2.23020023  7.56559658
   7.58142134  4.01254320  7.58142095
   8.45842753  8.46260493  6.67810969
   9.34674082  9.35208046  7.56628753
   8.45436379 10.24339553  8.45436405
   9.34500622  0.44816261  9.34500506
   6.67260811  1.33431790  1.33447831
   7.56749601  2.22761803  2.22174873
   6.67514354  3.11690310 10.23875971
   7.56511556  4.00589230  0.44925733
   8.45420149  1.33715450 10.23548505
   9.34610345  2.22645161  0.44340437
   8.45605508  3.11403695  1.33516832
   9.34063673  4.00359969  2.23152230
   6.65571355  1.35028159  4.88569389
   7.54873449  2.24306269  5.77841702
   6.65574057  3.10529386  3.13064534
   7.54872426  3.99805286  4.02343621
   8.45245777  1.33529542  3.11565910
   9.34232530  2.22598755  4.00636817
   8.45084351  3.11772216  4.89808356
   9.34836416  4.00799390  5.78836479
   6.67317565  1.34790004  8.44532225
   7.56559699  2.23019878  9.34542852
   6.67530226  3.15926115  6.67530162
   8.44532349  1.34790142  6.67317520
   4.89967548  1.33691515  3.11727002
   3.94375608  4.04090051  3.94375586
   3.11725577  3.11929106  3.11725571
   1.33420789  1.33414333 10.23438833
   2.22385662  2.22368093  0.44164380
   1.32838133  3.11425805  1.32838153
   2.21472636  3.99854529  2.21472655
  10.23385207  1.33684257  4.89452415
   0.44520674  2.22566880  5.78354818
  10.23385021  3.11416367  3.11721157
   0.44521297  4.00317890  4.00604845
   1.33500575  1.33522945  3.11559500
   2.22784206  2.22360132  4.00398341
   1.33978010  3.11261900  4.89299653
   2.23513877  3.99930353  5.77965414
  10.23548641  1.33715594  8.45420084
   0.44340294  2.22644451  9.34610135
  10.23876111  3.11690599  6.67514358
   0.44925596  4.00588662  7.56511412
   1.33447747  1.33431349  6.67260671
   2.22174795  2.22761371  7.56749459
   1.33516705  3.11403126  8.45605347
   2.23152125  4.00359401  9.34063496
  10.23416841  4.89459217  1.33896724
   0.44357799  5.78347840  2.22705681
  10.23929391  6.67618867 10.23929347
   0.44216234  4.00381873  0.44216274
   0.44586743  7.56534261  0.44586833
  10.23684657  3.11606007 10.23684567
  10.23439071  1.33415044  1.33420904
   0.44365703  9.34552656  2.22501354
  10.23583584 10.23805901 10.23583579
   0.44365717  0.44465030  0.44365707
   1.33619133  8.45546636 10.23583756
   2.22501288  9.34552801  0.44365843
   1.33400811 10.23587845  1.33400931
   2.22419516  0.44383096  2.22419490
  10.23684605  8.45648231  4.89642409
   0.44215912  9.34402745  5.78418249
  10.23439497 10.23607436  3.11451094
   0.44164275  0.44349132  4.00404308
   1.33420869  8.45402600  3.11451094
   2.22386110  9.34351058  4.00404677
   1.32837707 10.23024721  4.89461590
   2.21473160  0.43435937  5.77891072
  10.23929177  8.45892197  8.45655826
   0.44586512  9.34773411  9.34570717
  10.23416373 10.24083436  6.67495106
   0.44357189  0.44668310  7.56384250
   1.33896790  8.45379791  6.67495870
   2.22705874  9.34544622  7.56383535
   1.33547280 10.23734008  8.45340784
   2.22505875  0.44468222  9.34369888
   0.44164336  2.22367953  2.22385628
   1.33896557  4.89458502 10.23416651
   2.22705663  5.78347981  0.44357890
   1.33547226  6.67304382  1.33547295
   4.00398324  0.44747504  4.00398284
   4.89452516  8.45347843  3.11720386
   5.78353923  9.34708158  4.00605011
   4.89298499 10.24164871  4.89298577
   5.77965638  0.45478674  5.77965557
   3.11751808  8.45511578  8.45420410
   4.00681482  9.34527453  9.34609304
   3.11467831 10.23634946  6.67260213
   4.00797676  0.44136651  7.56750375
   4.89726901  8.45838598  6.67514836
   5.78624814  9.35112738  7.56510315
   4.89439915 10.23703532  8.45604806
   5.78396344  0.45115246  9.34062036
   3.11559549  1.33523092  1.33500602
   4.00398384  2.22360280  2.22784229
   3.11721070  3.11415798 10.23384824
   4.00604897  4.00318174  0.44521389
   4.89452389  1.33683835 10.23385015
   5.78354937  2.22567309  0.44520767
   4.89299719  3.11262189  1.33978082
   5.77965499  3.99930644  2.23513932
   3.11726966  1.33691336  4.89967500
   3.94372207  2.16335921  5.82128009
   3.11558883 10.23687884  3.11558982
   4.00604922  9.34708012  5.78353944
   3.11720292  8.45347699  4.89452542
   5.77891192  0.43436256  2.21473209
   2.22506405  7.56331868  2.22506468
  10.23876003  4.89477767  4.89727221
   0.44926274  5.78473936  5.78625110
  10.23549046  6.67383857  3.11752128
   0.44341374  7.56572622  4.00681695
   1.33448208  4.89222303  3.11468829
   2.22176155  5.78711822  4.00800157
   1.33516839  6.67567227  4.89439750
   2.23152530  7.56025291  5.78395932
  10.24297415  4.89773713  8.45842402
   0.45021007  5.78591952  9.34674316
   8.46140184  6.68103347  8.46140174
  10.24297286  6.67805368  6.67811203
   1.34390165  4.89054232  6.67093720
   2.23399122  5.78118808  7.56155570
   1.34152629  6.67399385  8.45436288
   2.22852923  7.56463622  9.34500910
   3.11451048  8.45402745  1.33420987
   4.00404636  9.34351208  2.22386225
   3.11450910 10.23606870 10.23439405
   4.00404412  0.44349424  0.44164321
   4.89642287  8.45647808 10.23684516
   5.78418281  9.34403184  0.44216105
   4.89461567 10.23025024  1.32837888
   0.45020883  7.56637172  7.56628724
   9.34975765  7.56938520  9.34975744
 


--------------------------------------------------------------------------------------------------------


 k-point   1 :   0.0000 0.0000 0.0000  plane waves:   32795

 maximum and minimum number of plane-waves per node :     32795    32795

 maximum number of plane-waves:     32795
 maximum index in each direction: 
   IXMAX=   19   IYMAX=   19   IZMAX=   19
   IXMIN=  -19   IYMIN=  -19   IZMIN=  -19


 serial   3D FFT for wavefunctions
 parallel 3D FFT for charge:
    minimum data exchange during FFTs selected (reduces bandwidth)


 total amount of memory used by VASP MPI-rank0   652260. kBytes
=======================================================================

   base      :      30000. kBytes
   nonlr-proj:      16125. kBytes
   fftplans  :      15609. kBytes
   grid      :      52416. kBytes
   one-center:       1320. kBytes
   wavefun   :     536790. kBytes
 
     INWAV:  cpu time      0.7491: real time      0.7484
 Broyden mixing: mesh for mixing (old mesh)
   NGX = 39   NGY = 39   NGZ = 39
  (NGX  =120   NGY  =120   NGZ  =120)
  gives a total of  59319 points

 charge density for first step will be calculated from the start-wavefunctions


--------------------------------------------------------------------------------------------------------


 Maximum index for non-local projection operator          1361
 Maximum index for augmentation-charges           548 (set IRDMAX)


--------------------------------------------------------------------------------------------------------


 initial charge from wavefunction
 First call to EWALD:  gamma=   0.166
 Maximum number of real-space cells 3x 3x 3
 Maximum number of reciprocal cells 3x 3x 3

    FEWALD:  cpu time      0.0630: real time      0.0630
 -----------------------------------------------------------------------------
|                                                                             |
|           W    W    AA    RRRRR   N    N  II  N    N   GGGG   !!!           |
|           W    W   A  A   R    R  NN   N  II  NN   N  G    G  !!!           |
|           W    W  A    A  R    R  N N  N  II  N N  N  G       !!!           |
|           W WW W  AAAAAA  RRRRR   N  N N  II  N  N N  G  GGG   !            |
|           WW  WW  A    A  R   R   N   NN  II  N   NN  G    G                |
|           W    W  A    A  R    R  N    N  II  N    N   GGGG   !!!           |
|                                                                             |
|     ALGO=A and IALGO=5X tend to fail with the tetrahedron method (e.g.      |
|     Bloechl's method, ISMEAR=-5, is not variational). Please switch to      |
|     IMSEAR=0-n, except for DOS calculations. For DOS calculations use       |
|     IALGO=53 after pre-converging with ISMEAR>=0.                           |
|     I HOPE YOU KNOW WHAT YOU ARE DOING!                                     |
|                                                                             |
 -----------------------------------------------------------------------------



--------------------------------------- Iteration      1(   1)  ---------------------------------------


    POTLOK:  cpu time      0.7268: real time      0.6619
    SETDIJ:  cpu time     11.3580: real time     11.3500
    TRIAL :  cpu time      1.0035: real time      1.0032
    CORREC:  cpu time      0.1098: real time      0.1097
    CHARGE:  cpu time      0.0822: real time      0.0822
    --------------------------------------------
      LOOP:  cpu time     13.4719: real time     13.3984

 eigenvalue-minimisations  :     0
 total energy-change (2. order) :-0.1931755E+04  (-0.1570523E+01)
 number of electron     861.9999049 magnetization       2.0000001
 augmentation part       20.7239771 magnetization       0.1233736

 Free energy of the ion-electron system (eV)
  ---------------------------------------------------
  alpha Z        PSCENC =      3094.29412155
  Ewald energy   TEWEN  =    -37397.73669797
  -Hartree energ DENC   =     -2944.13618174
  -exchange      EXHF   =         0.00000000
  -V(xc)+E(xc)   XCENC  =      3176.38936175
  PAW double counting   =     14268.28904769   -14543.57524249
  entropy T*S    EENTRO =         0.00000000
  eigenvalues    EBANDS =       660.32094031
  atomic energy  EATOM  =     31754.39923918
  ---------------------------------------------------
  free energy    TOTEN  =     -1931.75541172 eV

  energy without entropy =    -1931.75541172  energy(sigma->0) =    -1931.75541172


--------------------------------------------------------------------------------------------------------




--------------------------------------- Iteration      1(   2)  ---------------------------------------


    POTLOK:  cpu time      0.0194: real time      0.0194
    SETDIJ:  cpu time     11.0644: real time     11.0561
    TRIAL :  cpu time      0.9552: real time      0.9545
    CORREC:  cpu time      0.1044: real time      0.1043
    CHARGE:  cpu time      0.0766: real time      0.0765
    --------------------------------------------
      LOOP:  cpu time     12.2202: real time     12.2111

 eigenvalue-minimisations  :     0
 total energy-change (2. order) :-0.5396706E+00  (-0.1218061E+00)
 number of electron     861.9999049 magnetization       2.0000001
 augmentation part       20.7268190 magnetization       0.1240277

 Free energy of the ion-electron system (eV)
  ---------------------------------------------------
  alpha Z        PSCENC =      3094.29412155
  Ewald energy   TEWEN  =    -37397.73669797
  -Hartree energ DENC   =     -2949.29689738
  -exchange      EXHF   =         0.00000000
  -V(xc)+E(xc)   XCENC  =      3176.54429509
  PAW double counting   =     14273.03009723   -14548.32099867
  entropy T*S    EENTRO =         0.00000000
  eigenvalues    EBANDS =       664.79175869
  atomic energy  EATOM  =     31754.39923918
  ---------------------------------------------------
  free energy    TOTEN  =     -1932.29508229 eV

  energy without entropy =    -1932.29508229  energy(sigma->0) =    -1932.29508229


--------------------------------------------------------------------------------------------------------




--------------------------------------- Iteration      1(   3)  ---------------------------------------


    POTLOK:  cpu time      0.0171: real time      0.0171
    SETDIJ:  cpu time     10.9571: real time     10.9491
    TRIAL :  cpu time      0.9489: real time      0.9481
    CORREC:  cpu time      0.0970: real time      0.0970
    CHARGE:  cpu time      0.0792: real time      0.0792
    --------------------------------------------
      LOOP:  cpu time     12.0996: real time     12.0907

 eigenvalue-minimisations  :     0
 total energy-change (2. order) :-0.3557333E-01  (-0.1699531E+00)
 number of electron     861.9999049 magnetization       2.0000001
 augmentation part       20.7230573 magnetization       0.1253781

 Free energy of the ion-electron system (eV)
  ---------------------------------------------------
  alpha Z        PSCENC =      3094.29412155
  Ewald energy   TEWEN  =    -37397.73669797
  -Hartree energ DENC   =     -2949.72233179
  -exchange      EXHF   =         0.00000000
  -V(xc)+E(xc)   XCENC  =      3176.60454354
  PAW double counting   =     14274.95290966   -14550.25219566
  entropy T*S    EENTRO =         0.00000000
  eigenvalues    EBANDS =       665.12975587
  atomic energy  EATOM  =     31754.39923918
  ---------------------------------------------------
  free energy    TOTEN  =     -1932.33065562 eV

  energy without entropy =    -1932.33065562  energy(sigma->0) =    -1932.33065562


--------------------------------------------------------------------------------------------------------




--------------------------------------- Iteration      1(   4)  ---------------------------------------


    POTLOK:  cpu time      0.0183: real time      0.0183
    SETDIJ:  cpu time     11.0024: real time     10.9943
    TRIAL :  cpu time      0.9566: real time      0.9559
    CORREC:  cpu time      0.0614: real time      0.0614
    CHARGE:  cpu time      0.0737: real time      0.0737
    --------------------------------------------
      LOOP:  cpu time     12.1128: real time     12.1039

 eigenvalue-minimisations  :     0
 total energy-change (2. order) :-0.6623803E-01  (-0.4782627E-01)
 number of electron     861.9999049 magnetization       2.0000001
 augmentation part       20.7220888 magnetization       0.1249492

 Free energy of the ion-electron system (eV)
  ---------------------------------------------------
  alpha Z        PSCENC =      3094.29412155
  Ewald energy   TEWEN  =    -37397.73669797
  -Hartree energ DENC   =     -2947.82676393
  -exchange      EXHF   =         0.00000000
  -V(xc)+E(xc)   XCENC  =      3176.53740341
  PAW double counting   =     14273.09884107   -14548.39349446
  entropy T*S    EENTRO =         0.00000000
  eigenvalues    EBANDS =       663.23045750
  atomic energy  EATOM  =     31754.39923918
  ---------------------------------------------------
  free energy    TOTEN  =     -1932.39689365 eV

  energy without entropy =    -1932.39689365  energy(sigma->0) =    -1932.39689365


--------------------------------------------------------------------------------------------------------




--------------------------------------- Iteration      1(   5)  ---------------------------------------


    POTLOK:  cpu time      0.0165: real time      0.0164
    SETDIJ:  cpu time     11.0014: real time     10.9933
    TRIAL :  cpu time      0.9519: real time      0.9512
    CORREC:  cpu time      0.0068: real time      0.0068
    CHARGE:  cpu time      0.0790: real time      0.0789
    --------------------------------------------
      LOOP:  cpu time     12.0558: real time     12.0469

 eigenvalue-minimisations  :     0
 total energy-change (2. order) :-0.2092905E-01  (-0.2069000E-01)
 number of electron     861.9999049 magnetization       2.0000001
 augmentation part       20.7231875 magnetization       0.1242545

 Free energy of the ion-electron system (eV)
  ---------------------------------------------------
  alpha Z        PSCENC =      3094.29412155
  Ewald energy   TEWEN  =    -37397.73669797
  -Hartree energ DENC   =     -2947.64820894
  -exchange      EXHF   =         0.00000000
  -V(xc)+E(xc)   XCENC  =      3176.52036068
  PAW double counting   =     14272.63804863   -14547.93113066
  entropy T*S    EENTRO =         0.00000000
  eigenvalues    EBANDS =       663.04644482
  atomic energy  EATOM  =     31754.39923918
  ---------------------------------------------------
  free energy    TOTEN  =     -1932.41782271 eV

  energy without entropy =    -1932.41782271  energy(sigma->0) =    -1932.41782271


--------------------------------------------------------------------------------------------------------




--------------------------------------- Iteration      1(   6)  ---------------------------------------


    POTLOK:  cpu time      0.0183: real time      0.0183
    SETDIJ:  cpu time     10.9855: real time     10.9775
    TRIAL :  cpu time      0.9596: real time      0.9589
    CORREC:  cpu time      0.1005: real time      0.1004
    CHARGE:  cpu time      0.0735: real time      0.0735
    --------------------------------------------
      LOOP:  cpu time     12.1377: real time     12.1289

 eigenvalue-minimisations  :     0
 total energy-change (2. order) :-0.9393930E-02  (-0.9469663E-02)
 number of electron     861.9999049 magnetization       2.0000001
 augmentation part       20.7240737 magnetization       0.1240771

 Free energy of the ion-electron system (eV)
[...]
    4ORBIT:  cpu time      0.0000: real time      0.0000



 total charge

# of ion       s       p       d       tot
------------------------------------------
    1        1.210   2.663   0.000   3.872
    2        0.830   1.755   0.000   2.585
    3        0.830   1.755   0.000   2.586
    4        0.831   1.755   0.000   2.585
    5        0.829   1.749   0.000   2.578
    6        0.830   1.755   0.000   2.585
    7        0.826   1.720   0.000   2.546
    8        0.834   1.762   0.000   2.595
    9        0.832   1.762   0.000   2.593
   10        0.831   1.759   0.000   2.590
   11        0.830   1.754   0.000   2.584
   12        0.831   1.756   0.000   2.587
   13        0.830   1.754   0.000   2.584
   14        0.831   1.756   0.000   2.587
   15        0.830   1.754   0.000   2.585
   16        0.830   1.756   0.000   2.587
   17        0.830   1.755   0.000   2.585
   18        0.831   1.756   0.000   2.587
   19        0.831   1.756   0.000   2.587
   20        0.830   1.755   0.000   2.585
   21        0.831   1.754   0.000   2.584
   22        0.833   1.748   0.000   2.581
   23        0.830   1.756   0.000   2.586
   24        0.831   1.757   0.000   2.587
   25        0.831   1.759   0.000   2.591
   26        0.830   1.752   0.000   2.582
   27        0.829   1.749   0.000   2.578
   28        0.831   1.757   0.000   2.587
   29        0.831   1.756   0.000   2.586
   30        0.830   1.748   0.000   2.578
   31        0.830   1.756   0.000   2.586
   32        0.829   1.750   0.000   2.580
   33        0.830   1.748   0.000   2.578
   34        0.830   1.749   0.000   2.579
   35        0.831   1.748   0.000   2.578
   36        0.831   1.760   0.000   2.591
   37        0.831   1.756   0.000   2.587
   38        0.831   1.755   0.000   2.585
   39        0.832   1.747   0.000   2.579
   40        0.831   1.756   0.000   2.586
   41        0.831   1.757   0.000   2.587
   42        0.831   1.756   0.000   2.587
   43        0.830   1.755   0.000   2.586
   44        0.831   1.759   0.000   2.590
   45        0.830   1.752   0.000   2.582
   46        0.831   1.757   0.000   2.588
   47        0.830   1.748   0.000   2.578
   48        0.831   1.756   0.000   2.586
   49        0.831   1.756   0.000   2.586
   50        0.831   1.757   0.000   2.588
   51        0.831   1.760   0.000   2.591
   52        0.840   1.769   0.000   2.609
   53        0.831   1.757   0.000   2.587
   54        0.831   1.756   0.000   2.587
   55        0.831   1.758   0.000   2.589
   56        0.830   1.754   0.000   2.584
   57        0.831   1.756   0.000   2.587
   58        0.831   1.757   0.000   2.587
   59        0.831   1.757   0.000   2.587
   60        0.831   1.757   0.000   2.587
   61        0.831   1.757   0.000   2.587
   62        0.830   1.755   0.000   2.585
   63        0.831   1.756   0.000   2.587
   64        0.826   1.720   0.000   2.546
   65        0.834   1.762   0.000   2.595
   66        0.829   1.749   0.000   2.578
   67        0.830   1.755   0.000   2.585
   68        0.829   1.749   0.000   2.578
   69        0.830   1.755   0.000   2.586
   70        0.832   1.762   0.000   2.593
   71        0.831   1.759   0.000   2.590
   72        0.831   1.757   0.000   2.588
   73        0.831   1.758   0.000   2.589
   74        0.831   1.757   0.000   2.588
   75        0.831   1.758   0.000   2.589
   76        0.831   1.757   0.000   2.588
   77        0.831   1.758   0.000   2.589
   78        0.832   1.761   0.000   2.593
   79        0.830   1.754   0.000   2.584
   80        0.830   1.755   0.000   2.585
   81        0.834   1.762   0.000   2.595
   82        0.831   1.757   0.000   2.587
   83        0.831   1.757   0.000   2.587
   84        0.830   1.755   0.000   2.585
   85        0.831   1.756   0.000   2.587
   86        0.831   1.754   0.000   2.585
   87        0.833   1.748   0.000   2.581
   88        0.831   1.756   0.000   2.587
   89        0.830   1.755   0.000   2.585
   90        0.830   1.756   0.000   2.586
   91        0.831   1.757   0.000   2.588
   92        0.832   1.760   0.000   2.592
   93        0.830   1.752   0.000   2.582
   94        0.830   1.749   0.000   2.579
   95        0.831   1.748   0.000   2.578
   96        0.829   1.750   0.000   2.579
   97        0.830   1.748   0.000   2.578
   98        0.831   1.755   0.000   2.585
   99        0.830   1.756   0.000   2.586
  100        0.831   1.760   0.000   2.591
  101        0.831   1.756   0.000   2.587
  102        0.829   1.749   0.000   2.578
  103        0.830   1.755   0.000   2.585
  104        0.826   1.719   0.000   2.545
  105        0.829   1.749   0.000   2.578
  106        0.832   1.757   0.000   2.588
  107        0.846   1.708   0.000   2.554
  108        0.833   1.763   0.000   2.597
  109        0.831   1.756   0.000   2.587
  110        0.830   1.755   0.000   2.585
  111        0.832   1.760   0.000   2.591
  112        0.833   1.751   0.000   2.584
  113        0.830   1.756   0.000   2.587
  114        0.830   1.756   0.000   2.586
  115        0.831   1.756   0.000   2.587
  116        0.831   1.756   0.000   2.587
  117        0.830   1.755   0.000   2.585
  118        0.832   1.754   0.000   2.586
  119        0.831   1.756   0.000   2.587
  120        0.831   1.757   0.000   2.587
  121        0.831   1.756   0.000   2.586
  122        0.831   1.757   0.000   2.588
  123        0.831   1.756   0.000   2.587
  124        0.830   1.755   0.000   2.585
  125        0.831   1.754   0.000   2.585
  126        0.833   1.748   0.000   2.581
  127        0.832   1.760   0.000   2.592
  128        0.830   1.752   0.000   2.582
  129        0.830   1.754   0.000   2.584
  130        0.831   1.756   0.000   2.587
  131        0.830   1.754   0.000   2.585
  132        0.831   1.756   0.000   2.587
  133        0.831   1.756   0.000   2.586
  134        0.832   1.761   0.000   2.593
  135        0.831   1.756   0.000   2.587
  136        0.831   1.756   0.000   2.587
  137        0.830   1.755   0.000   2.585
  138        0.831   1.756   0.000   2.587
  139        0.830   1.755   0.000   2.585
  140        0.831   1.756   0.000   2.587
  141        0.830   1.756   0.000   2.586
  142        0.831   1.755   0.000   2.585
  143        0.832   1.761   0.000   2.592
  144        0.831   1.757   0.000   2.587
  145        0.831   1.756   0.000   2.587
  146        0.831   1.754   0.000   2.585
  147        0.831   1.756   0.000   2.587
  148        0.830   1.754   0.000   2.585
  149        0.832   1.760   0.000   2.592
  150        0.834   1.753   0.000   2.587
  151        0.830   1.754   0.000   2.585
  152        0.831   1.756   0.000   2.587
  153        0.830   1.754   0.000   2.584
  154        0.831   1.756   0.000   2.587
  155        0.830   1.754   0.000   2.584
  156        0.831   1.756   0.000   2.587
  157        0.830   1.755   0.000   2.585
  158        0.831   1.756   0.000   2.587
  159        0.830   1.755   0.000   2.585
  160        0.830   1.754   0.000   2.584
  161        0.831   1.756   0.000   2.587
  162        0.830   1.755   0.000   2.586
  163        0.831   1.756   0.000   2.586
  164        0.830   1.756   0.000   2.587
  165        0.830   1.756   0.000   2.587
  166        0.830   1.756   0.000   2.586
  167        0.830   1.757   0.000   2.588
  168        0.830   1.756   0.000   2.586
  169        0.831   1.757   0.000   2.587
  170        0.831   1.754   0.000   2.585
  171        0.833   1.748   0.000   2.581
  172        0.831   1.756   0.000   2.587
  173        0.830   1.755   0.000   2.585
  174        0.831   1.759   0.000   2.591
  175        0.830   1.752   0.000   2.582
  176        0.830   1.755   0.000   2.585
  177        0.832   1.755   0.000   2.586
  178        0.831   1.756   0.000   2.587
  179        0.831   1.756   0.000   2.587
  180        0.830   1.756   0.000   2.587
  181        0.830   1.756   0.000   2.586
  182        0.830   1.756   0.000   2.587
  183        0.831   1.757   0.000   2.587
  184        0.832   1.757   0.000   2.589
  185        0.840   1.767   0.000   2.607
  186        0.830   1.755   0.000   2.585
  187        0.830   1.756   0.000   2.587
  188        0.830   1.756   0.000   2.587
  189        0.834   1.753   0.000   2.587
  190        0.831   1.756   0.000   2.586
  191        0.831   1.756   0.000   2.587
  192        0.830   1.755   0.000   2.586
  193        0.831   1.756   0.000   2.586
  194        0.831   1.757   0.000   2.587
  195        0.831   1.755   0.000   2.585
  196        0.832   1.747   0.000   2.579
  197        0.831   1.759   0.000   2.590
  198        0.830   1.752   0.000   2.582
  199        0.831   1.757   0.000   2.587
  200        0.831   1.757   0.000   2.587
  201        0.831   1.756   0.000   2.587
  202        0.831   1.757   0.000   2.587
  203        0.830   1.754   0.000   2.584
  204        0.831   1.756   0.000   2.587
  205        0.830   1.755   0.000   2.585
  206        0.831   1.756   0.000   2.587
  207        0.831   1.756   0.000   2.587
  208        0.830   1.754   0.000   2.585
  209        0.831   1.756   0.000   2.587
  210        0.831   1.754   0.000   2.585
  211        0.832   1.761   0.000   2.592
  212        0.831   1.757   0.000   2.587
  213        0.832   1.760   0.000   2.592
  214        0.831   1.757   0.000   2.587
  215        0.831   1.756   0.000   2.587
--------------------------------------------------
tot        179.013 378.173   0.000 557.187



 magnetization (x)

# of ion       s       p       d       tot
------------------------------------------
    1        0.019   0.141   0.000   0.160
    2       -0.000   0.000   0.000   0.000
    3        0.000   0.000   0.000   0.000
    4       -0.000  -0.001   0.000  -0.001
    5       -0.000  -0.000   0.000  -0.001
    6       -0.000   0.000   0.000   0.000
    7       -0.001  -0.000   0.000  -0.001
    8        0.001   0.009   0.000   0.011
    9        0.000   0.001   0.000   0.001
   10        0.000   0.001   0.000   0.001
   11       -0.000   0.000   0.000  -0.000
   12        0.000   0.001   0.000   0.001
   13       -0.000   0.000   0.000   0.000
   14        0.000   0.001   0.000   0.001
   15       -0.000   0.000   0.000   0.000
   16        0.000   0.001   0.000   0.001
   17       -0.000   0.000   0.000   0.000
   18        0.000   0.001   0.000   0.002
   19       -0.000  -0.000   0.000  -0.000
   20        0.000   0.000   0.000   0.000
   21       -0.000  -0.001   0.000  -0.001
   22        0.002   0.013   0.000   0.015
   23       -0.000  -0.000   0.000  -0.000
   24        0.000   0.001   0.000   0.002
   25        0.001   0.002   0.000   0.002
   26       -0.000   0.000   0.000   0.000
   27       -0.000   0.000   0.000  -0.000
   28       -0.000   0.000   0.000   0.000
   29        0.000   0.001   0.000   0.002
   30        0.001   0.007   0.000   0.007
   31        0.000   0.002   0.000   0.002
   32       -0.001  -0.004   0.000  -0.005
   33        0.001   0.004   0.000   0.005
   34       -0.000   0.001   0.000   0.000
   35        0.000   0.004   0.000   0.004
   36       -0.000  -0.001   0.000  -0.001
   37        0.000   0.001   0.000   0.001
   38       -0.000  -0.001   0.000  -0.002
   39        0.005   0.025   0.000   0.031
   40       -0.000  -0.000   0.000  -0.000
   41        0.000   0.002   0.000   0.002
   42       -0.000  -0.000   0.000  -0.000
   43        0.000  -0.000   0.000   0.000
   44        0.001   0.003   0.000   0.004
   45       -0.000   0.000   0.000   0.000
   46       -0.003  -0.009   0.000  -0.011
   47        0.001   0.007   0.000   0.008
   48       -0.000  -0.001   0.000  -0.002
   49        0.000   0.002   0.000   0.002
   50       -0.003  -0.008   0.000  -0.011
   51       -0.000  -0.001   0.000  -0.001
   52        0.017   0.157   0.000   0.174
   53        0.000   0.000   0.000   0.000
   54        0.000   0.000   0.000   0.000
   55        0.000   0.001   0.000   0.002
   56       -0.000  -0.000   0.000  -0.000
   57       -0.000   0.000   0.000   0.000
   58       -0.000   0.000   0.000   0.000
   59        0.000   0.000   0.000   0.000
   60       -0.000   0.000   0.000   0.000
   61        0.000   0.000   0.000   0.000
   62       -0.000   0.000   0.000   0.000
   63        0.000   0.000   0.000   0.000
   64       -0.001  -0.000   0.000  -0.001
   65        0.001   0.009   0.000   0.011
   66       -0.000  -0.000   0.000  -0.001
   67       -0.000   0.000   0.000   0.000
   68       -0.000   0.000   0.000  -0.000
   69        0.000   0.000   0.000   0.000
   70        0.000   0.001   0.000   0.001
   71        0.000   0.001   0.000   0.001
   72       -0.000  -0.000   0.000  -0.000
   73        0.000   0.002   0.000   0.002
   74       -0.000  -0.000   0.000  -0.000
   75        0.000   0.002   0.000   0.002
   76       -0.000  -0.000   0.000  -0.000
   77        0.000   0.002   0.000   0.002
   78        0.000   0.002   0.000   0.002
   79       -0.000  -0.000   0.000  -0.000
   80       -0.000   0.000   0.000   0.000
   81        0.001   0.010   0.000   0.011
   82       -0.000   0.000   0.000   0.000
   83        0.000   0.000   0.000   0.000
   84        0.000   0.000   0.000   0.000
   85        0.000   0.000   0.000   0.000
   86       -0.000  -0.001   0.000  -0.001
   87        0.002   0.011   0.000   0.013
   88       -0.000  -0.000   0.000  -0.000
   89        0.000   0.000   0.000   0.000
   90       -0.000  -0.000   0.000  -0.000
   91        0.000   0.001   0.000   0.001
   92        0.000   0.000   0.000   0.000
   93        0.000   0.000   0.000   0.000
   94       -0.000   0.001   0.000   0.000
   95        0.000   0.004   0.000   0.004
   96       -0.001  -0.004   0.000  -0.005
   97        0.001   0.004   0.000   0.005
   98       -0.000  -0.001   0.000  -0.001
   99        0.000   0.002   0.000   0.002
  100       -0.000  -0.001   0.000  -0.001
  101        0.000   0.001   0.000   0.001
  102       -0.000  -0.000   0.000  -0.000
  103       -0.000   0.000   0.000   0.000
  104       -0.000   0.001   0.000   0.000
  105       -0.000  -0.000   0.000  -0.000
  106       -0.000   0.004   0.000   0.004
  107        0.051   0.369   0.000   0.420
  108       -0.002  -0.003   0.000  -0.006
  109       -0.000   0.000   0.000   0.000
  110       -0.000   0.000   0.000   0.000
  111        0.001   0.005   0.000   0.006
  112        0.005   0.025   0.000   0.030
  113       -0.000  -0.000   0.000  -0.000
  114        0.000   0.001   0.000   0.002
  115       -0.000  -0.000   0.000  -0.000
  116        0.000   0.002   0.000   0.002
  117       -0.000  -0.000   0.000  -0.000
  118        0.001   0.006   0.000   0.007
  119       -0.000  -0.001   0.000  -0.001
  120        0.001   0.006   0.000   0.007
  121       -0.000  -0.000   0.000  -0.000
  122        0.000   0.001   0.000   0.001
  123       -0.000  -0.000   0.000  -0.000
  124        0.000   0.000   0.000   0.000
  125       -0.000  -0.001   0.000  -0.001
  126        0.002   0.011   0.000   0.013
  127        0.000   0.000   0.000   0.000
  128        0.000   0.000   0.000   0.000
  129       -0.000   0.000   0.000  -0.000
  130        0.000   0.002   0.000   0.002
  131       -0.000   0.000   0.000   0.000
  132        0.000   0.003   0.000   0.003
  133        0.000   0.001   0.000   0.001
  134        0.000   0.002   0.000   0.002
  135       -0.000   0.000   0.000   0.000
  136        0.000   0.001   0.000   0.001
  137        0.000   0.000   0.000   0.000
  138        0.000   0.000   0.000   0.000
  139       -0.000   0.000   0.000   0.000
  140        0.000   0.001   0.000   0.001
  141        0.000   0.001   0.000   0.001
  142        0.000   0.001   0.000   0.001
  143        0.000   0.002   0.000   0.002
  144        0.000   0.002   0.000   0.002
  145       -0.000   0.000   0.000   0.000
  146       -0.000   0.000   0.000   0.000
  147       -0.000   0.000   0.000   0.000
  148        0.000   0.000   0.000   0.000
  149        0.001   0.003   0.000   0.004
  150        0.002   0.013   0.000   0.015
  151       -0.000   0.000   0.000   0.000
  152        0.000   0.001   0.000   0.001
  153       -0.000   0.000   0.000   0.000
  154        0.000   0.001   0.000   0.001
  155       -0.000   0.000   0.000  -0.000
  156        0.000   0.001   0.000   0.001
  157       -0.000   0.000   0.000   0.000
  158        0.000   0.001   0.000   0.002
  159       -0.000   0.000   0.000   0.000
  160       -0.000   0.000   0.000  -0.000
  161        0.000   0.002   0.000   0.002
  162       -0.000   0.000   0.000   0.000
  163        0.002   0.004   0.000   0.005
  164       -0.000  -0.000   0.000  -0.000
  165        0.000   0.000   0.000   0.001
  166       -0.000  -0.001   0.000  -0.001
  167        0.002   0.003   0.000   0.005
  168       -0.000  -0.000   0.000  -0.000
  169        0.000   0.001   0.000   0.002
  170       -0.000  -0.001   0.000  -0.001
  171        0.002   0.013   0.000   0.015
  172       -0.000  -0.000   0.000  -0.000
  173        0.000   0.000   0.000   0.000
  174        0.001   0.002   0.000   0.003
  175       -0.000   0.000   0.000   0.000
  176       -0.000  -0.000   0.000  -0.000
  177        0.001   0.006   0.000   0.007
  178       -0.000  -0.000   0.000  -0.000
  179        0.000   0.002   0.000   0.002
  180       -0.000  -0.000   0.000  -0.000
  181        0.000   0.001   0.000   0.002
  182       -0.000  -0.001   0.000  -0.001
  183        0.001   0.006   0.000   0.007
  184       -0.001   0.004   0.000   0.004
  185        0.017   0.163   0.000   0.181
  186       -0.000   0.000   0.000   0.000
  187        0.000   0.000   0.000   0.001
  188       -0.000  -0.000   0.000  -0.000
  189        0.002   0.012   0.000   0.014
  190        0.000   0.002   0.000   0.003
  191       -0.000  -0.000   0.000  -0.000
  192        0.000   0.000   0.000   0.000
  193       -0.000  -0.000   0.000  -0.000
  194        0.000   0.002   0.000   0.002
  195       -0.000  -0.001   0.000  -0.002
  196        0.005   0.025   0.000   0.031
  197        0.001   0.003   0.000   0.004
  198       -0.000   0.000   0.000   0.000
  199       -0.000   0.000   0.000   0.000
  200        0.000   0.000   0.000   0.000
  201       -0.000   0.000   0.000   0.000
  202       -0.000   0.000   0.000   0.000
  203       -0.000  -0.000   0.000  -0.000
  204       -0.000   0.000   0.000   0.000
  205       -0.000   0.000   0.000  -0.000
  206        0.000   0.000   0.000   0.000
  207       -0.000   0.000   0.000   0.000
  208        0.000   0.000   0.000   0.000
  209       -0.000   0.000   0.000   0.000
  210       -0.000   0.000   0.000   0.000
  211        0.000   0.002   0.000   0.002
  212        0.000   0.002   0.000   0.002
  213        0.001   0.003   0.000   0.004
  214        0.000   0.000   0.000   0.000
  215        0.000   0.001   0.000   0.001
--------------------------------------------------
tot          0.140   1.135   0.000   1.275
 

 total amount of memory used by VASP MPI-rank0   652260. kBytes
=======================================================================

   base      :      30000. kBytes
   nonlr-proj:      16125. kBytes
   fftplans  :      15609. kBytes
   grid      :      52416. kBytes
   one-center:       1320. kBytes
   wavefun   :     536790. kBytes
 
  
  
 General timing and accounting informations for this job:
 ========================================================
  
                  Total CPU time used (sec):      232.971
                            User time (sec):      226.190
                          System time (sec):        6.782
                         Elapsed time (sec):      233.120
  
                   Maximum memory used (kb):     1794612.
                   Average memory used (kb):          N/A
  
                          Minor page faults:       290874
                          Major page faults:           13
                 Voluntary context switches:        28543
