       N       E                     dE             d eps       ncg     rms          rms(c)
DAV:   1    -0.240382431179E+04   -0.24038E+04   -0.28166E+01  2728   0.697E+00    0.338E+00
DAV:   2    -0.240388314997E+04   -0.58838E-01   -0.51242E-01  2952   0.911E-01    0.214E+00
DAV:   3    -0.240381922770E+04    0.63922E-01   -0.38065E-02  3112   0.265E-01    0.119E+00
DAV:   4    -0.240380151605E+04    0.17712E-01   -0.14046E-02  3016   0.157E-01    0.665E-01
DAV:   5    -0.240379670393E+04    0.48121E-02   -0.33526E-03  2944   0.784E-02    0.375E-01
DAV:   6    -0.240379534348E+04    0.13605E-02   -0.82596E-04  2968   0.396E-02    0.214E-01
DAV:   7    -0.240379494994E+04    0.39355E-03   -0.20594E-04  3040   0.201E-02    0.123E-01
DAV:   8    -0.240379483280E+04    0.11714E-03   -0.50402E-05  2712   0.103E-02    0.714E-02
DAV:   9    -0.240379479798E+04    0.34819E-04   -0.14751E-05  1592   0.588E-03    0.416E-02
DAV:  10    -0.240379478853E+04    0.94519E-05   -0.50708E-06  1416   0.371E-03
   1 F= -.24037948E+04 E0= -.24037948E+04  d E =-.240379E+04  mag=     2.0000
       N       E                     dE             d eps       ncg     rms          rms(c)
DAV:   1    -0.240377590730E+04    0.18891E-01   -0.19869E+00  2720   0.161E+00    0.249E-01
DAV:   2    -0.240379330883E+04   -0.17402E-01   -0.44802E-02  3312   0.241E-01    0.226E-01
DAV:   3    -0.240379246334E+04    0.84549E-03   -0.23594E-03  3320   0.646E-02    0.118E-01
DAV:   4    -0.240379233498E+04    0.12835E-03   -0.94671E-04  3304   0.373E-02    0.613E-02
DAV:   5    -0.240379231375E+04    0.21237E-04   -0.14804E-04  3128   0.145E-02    0.339E-02
DAV:   6    -0.240379230547E+04    0.82772E-05   -0.30705E-05  2368   0.632E-03
   2 F= -.24037923E+04 E0= -.24037923E+04  d E =0.248306E-02  mag=     2.0000
       N       E                     dE             d eps       ncg     rms          rms(c)
DAV:   1    -0.240379262660E+04   -0.31286E-03   -0.64903E-01  2736   0.920E-01    0.134E-01
DAV:   2    -0.240379833206E+04   -0.57055E-02   -0.14930E-02  3320   0.139E-01    0.123E-01
DAV:   3    -0.240379807683E+04    0.25523E-03   -0.78062E-04  3320   0.368E-02    0.645E-02
DAV:   4    -0.240379803497E+04    0.41852E-04   -0.29141E-04  3304   0.209E-02    0.333E-02
DAV:   5    -0.240379802869E+04    0.62882E-05   -0.48532E-05  2584   0.832E-03
   3 F= -.24037980E+04 E0= -.24037980E+04  d E =-.324016E-02  mag=     2.0000
       N       E                     dE             d eps       ncg     rms          rms(c)
DAV:   1    -0.240379526367E+04    0.27713E-02   -0.41717E-01  2704   0.658E-01    0.121E-01
DAV:   2    -0.240379879012E+04   -0.35264E-02   -0.81137E-03  3264   0.947E-02    0.949E-02
DAV:   3    -0.240379869629E+04    0.93827E-04   -0.49104E-04  3288   0.267E-02    0.512E-02
DAV:   4    -0.240379866540E+04    0.30893E-04   -0.11910E-04  3264   0.144E-02    0.277E-02
DAV:   5    -0.240379866021E+04    0.51852E-05   -0.31671E-05  2456   0.711E-03
   4 F= -.24037987E+04 E0= -.24037987E+04  d E =-.631527E-03  mag=     2.0000
       N       E                     dE             d eps       ncg     rms          rms(c)
DAV:   1    -0.240379848939E+04    0.17601E-03   -0.45674E-02  2720   0.218E-01    0.351E-02
DAV:   2    -0.240379888174E+04   -0.39235E-03   -0.92499E-04  3264   0.318E-02    0.282E-02
DAV:   3    -0.240379887329E+04    0.84459E-05   -0.53753E-05  3040   0.887E-03
   5 F= -.24037989E+04 E0= -.24037989E+04  d E =-.844606E-03  mag=     2.0000
       N       E                     dE             d eps       ncg     rms          rms(c)
DAV:   1    -0.240379805379E+04    0.82795E-03   -0.11620E-01  2736   0.389E-01    0.652E-02
DAV:   2    -0.240379903633E+04   -0.98255E-03   -0.24753E-03  3272   0.560E-02    0.456E-02
DAV:   3    -0.240379903626E+04    0.77678E-07   -0.17177E-04  3272   0.155E-02    0.272E-02
DAV:   4    -0.240379902660E+04    0.96586E-05   -0.18585E-05  2352   0.739E-03
   6 F= -.24037990E+04 E0= -.24037990E+04  d E =-.153305E-03  mag=     2.0000
       N       E                     dE             d eps       ncg     rms          rms(c)
DAV:   1    -0.240379898545E+04    0.50806E-04   -0.14007E-02  2736   0.135E-01    0.186E-02
DAV:   2    -0.240379910936E+04   -0.12391E-03   -0.32694E-04  3256   0.202E-02    0.132E-02
DAV:   3    -0.240379910946E+04   -0.94558E-07   -0.19480E-05  2424   0.547E-03
   7 F= -.24037991E+04 E0= -.24037991E+04  d E =-.236165E-03  mag=     2.0000
       N       E                     dE             d eps       ncg     rms          rms(c)
DAV:   1    -0.240379910717E+04    0.21937E-05   -0.18875E-04  2656   0.156E-02    0.597E-03
DAV:   2    -0.240379910822E+04   -0.10498E-05   -0.23959E-06  1576   0.182E-03
   8 F= -.24037991E+04 E0= -.24037991E+04  d E =-.234927E-03  mag=     2.0000
       N       E                     dE             d eps       ncg     rms          rms(c)
DAV:   1    -0.240379905629E+04    0.50879E-04   -0.14006E-02  2704   0.160E-01    0.163E-02
DAV:   2    -0.240379917947E+04   -0.12318E-03   -0.31510E-04  3272   0.218E-02    0.174E-02
DAV:   3    -0.240379917651E+04    0.29571E-05   -0.12740E-05  2296   0.565E-03
   9 F= -.24037992E+04 E0= -.24037992E+04  d E =-.682900E-04  mag=     2.0000
       N       E                     dE             d eps       ncg     rms          rms(c)
DAV:   1    -0.240379917550E+04    0.39694E-05   -0.26360E-04  2640   0.225E-02    0.414E-03
DAV:   2    -0.240379917855E+04   -0.30485E-05   -0.11926E-05  1608   0.456E-03
  10 F= -.24037992E+04 E0= -.24037992E+04  d E =-.703262E-04  mag=     2.0000
