       N       E                     dE             d eps       ncg     rms          rms(c)
DAV:   1     0.253931156419E+04    0.25393E+04   -0.45445E+05  2560   0.133E+03
DAV:   2    -0.170817746425E+04   -0.42475E+04   -0.40432E+04  3160   0.268E+02
DAV:   3    -0.191215474630E+04   -0.20398E+03   -0.20212E+03  3360   0.536E+01
DAV:   4    -0.191521740816E+04   -0.30627E+01   -0.30507E+01  3360   0.673E+00
DAV:   5    -0.191527551738E+04   -0.58109E-01   -0.58064E-01  3080   0.930E-01    0.867E+01
DAV:   6    -0.189905738312E+04    0.16218E+02   -0.91038E+01  2960   0.109E+01    0.466E+01
DAV:   7    -0.192935480732E+04   -0.30297E+02   -0.59705E+01  2920   0.867E+00    0.200E+01
DAV:   8    -0.193426288569E+04   -0.49081E+01   -0.93847E+00  3080   0.387E+00    0.378E+00
DAV:   9    -0.193440220029E+04   -0.13931E+00   -0.43828E-01  3160   0.114E+00    0.195E+00
DAV:  10    -0.193438813608E+04    0.14064E-01   -0.17577E-01  3160   0.557E-01    0.537E-01
DAV:  11    -0.193438400326E+04    0.41328E-02   -0.15211E-02  3200   0.176E-01    0.162E-01
DAV:  12    -0.193438493219E+04   -0.92893E-03   -0.10908E-03  3360   0.616E-02    0.782E-02
DAV:  13    -0.193438536900E+04   -0.43681E-03   -0.58942E-04  3320   0.401E-02    0.343E-02
DAV:  14    -0.193438544736E+04   -0.78363E-04   -0.10127E-04  3200   0.164E-02    0.172E-02
DAV:  15    -0.193438546645E+04   -0.19088E-04   -0.24881E-05  2880   0.808E-03    0.524E-03
DAV:  16    -0.193438546851E+04   -0.20607E-05   -0.38698E-06  1560   0.298E-03
   1 F= -.19343855E+04 E0= -.19343855E+04  d E =0.000000E+00  mag=     2.0007
 Linear response reoptimize wavefunctions
DAV:   1    -0.193438546902E+04   -0.51263E-06   -0.69691E-07  3160   0.114E-03
DAV:   2    -0.193438546902E+04   -0.31359E-08   -0.23805E-08  2080   0.198E-04
DAV:   3    -0.193438546903E+04   -0.91313E-09   -0.13402E-09  1520   0.505E-05
 Linear response DOF=         125
 Linear response progress:
  Degree of freedom:   1/125
       N       E                     dE             d eps       ncg     rms          rms(c)
RMM:   1    -0.242416842906E+00   -0.24242E+00    0.16727E-01  6914   0.392E-01
RMM:   2    -0.224112760842E+00    0.18304E-01   -0.13887E-02  4294   0.972E-02    0.281E-01
RMM:   3    -0.221958431667E+00    0.21543E-02   -0.21653E-03  4452   0.344E-02    0.141E-01
RMM:   4    -0.220870665545E+00    0.10878E-02   -0.45527E-04  4512   0.168E-02    0.467E-02
RMM:   5    -0.220596685939E+00    0.27398E-03   -0.33243E-05  4610   0.514E-03    0.120E-02
RMM:   6    -0.220622060225E+00   -0.25374E-04   -0.39168E-06  4747   0.174E-03    0.333E-03
RMM:   7    -0.220627820675E+00   -0.57605E-05    0.39792E-07  4964   0.805E-04    0.138E-03
 Linear response progress:
  Degree of freedom:   2/125
       N       E                     dE             d eps       ncg     rms          rms(c)
RMM:   1    -0.138432181889E+00   -0.13843E+00    0.14222E-02  7189   0.375E-01
RMM:   2    -0.117574690350E+00    0.20857E-01   -0.71256E-03  4344   0.969E-02    0.185E-01
RMM:   3    -0.116292651785E+00    0.12820E-02   -0.93109E-04  4553   0.275E-02    0.939E-02
RMM:   4    -0.115657629340E+00    0.63502E-03   -0.26497E-04  4550   0.155E-02    0.265E-02
RMM:   5    -0.115567443986E+00    0.90185E-04   -0.20949E-05  4670   0.420E-03    0.650E-03
RMM:   6    -0.115585271017E+00   -0.17827E-04   -0.22706E-05  5110   0.141E-03    0.118E-03
RMM:   7    -0.115591561223E+00   -0.62902E-05   -0.26709E-05  6155   0.626E-04    0.415E-04
 Linear response progress:
  Degree of freedom:   3/125
       N       E                     dE             d eps       ncg     rms          rms(c)
RMM:   1    -0.138309540028E+00   -0.13831E+00    0.15032E-02  7074   0.370E-01
RMM:   2    -0.116848559631E+00    0.21461E-01   -0.72728E-03  4326   0.922E-02    0.185E-01
RMM:   3    -0.115756640179E+00    0.10919E-02   -0.10121E-03  4506   0.273E-02    0.938E-02
RMM:   4    -0.115184182671E+00    0.57246E-03   -0.29868E-04  4504   0.152E-02    0.266E-02
RMM:   5    -0.115076292992E+00    0.10789E-03   -0.27774E-05  4638   0.418E-03    0.651E-03
RMM:   6    -0.115087817254E+00   -0.11524E-04   -0.10597E-05  4933   0.138E-03    0.119E-03
RMM:   7    -0.115092259497E+00   -0.44422E-05   -0.11822E-05  5727   0.532E-04    0.424E-04
 Linear response progress:
  Degree of freedom:   4/125
       N       E                     dE             d eps       ncg     rms          rms(c)
RMM:   1    -0.137791072786E+00   -0.13779E+00    0.19464E-02  7108   0.388E-01
RMM:   2    -0.116607528486E+00    0.21184E-01   -0.73578E-03  4345   0.101E-01    0.185E-01
RMM:   3    -0.115561139810E+00    0.10464E-02   -0.10774E-03  4553   0.284E-02    0.936E-02
RMM:   4    -0.115016758475E+00    0.54438E-03   -0.35344E-04  4531   0.160E-02    0.264E-02
RMM:   5    -0.114905888315E+00    0.11087E-03   -0.39507E-05  4638   0.430E-03    0.648E-03
RMM:   6    -0.114913100783E+00   -0.72125E-05   -0.15717E-05  5065   0.144E-03    0.127E-03
 Linear response progress:
  Degree of freedom:   5/125
       N       E                     dE             d eps       ncg     rms          rms(c)
RMM:   1    -0.137672767463E+00   -0.13767E+00    0.22127E-02  7121   0.388E-01
RMM:   2    -0.117646820740E+00    0.20026E-01   -0.71051E-03  4327   0.100E-01    0.186E-01
RMM:   3    -0.116415393643E+00    0.12314E-02   -0.90834E-04  4527   0.285E-02    0.939E-02
RMM:   4    -0.115787192666E+00    0.62820E-03   -0.23643E-04  4499   0.160E-02    0.266E-02
RMM:   5    -0.115686758600E+00    0.10043E-03   -0.17929E-05  4646   0.438E-03    0.647E-03
RMM:   6    -0.115706630706E+00   -0.19872E-04   -0.25397E-05  5116   0.147E-03    0.118E-03
RMM:   7    -0.115711956317E+00   -0.53256E-05   -0.27815E-05  6205   0.661E-04    0.424E-04
 Linear response progress:
  Degree of freedom:   6/125
       N       E                     dE             d eps       ncg     rms          rms(c)
RMM:   1    -0.138022184925E+00   -0.13802E+00    0.18118E-02  7124   0.387E-01
RMM:   2    -0.117019798569E+00    0.21002E-01   -0.71962E-03  4335   0.100E-01    0.185E-01
RMM:   3    -0.115910338902E+00    0.11095E-02   -0.10105E-03  4499   0.285E-02    0.938E-02
RMM:   4    -0.115319854312E+00    0.59048E-03   -0.30444E-04  4528   0.160E-02    0.266E-02
RMM:   5    -0.115203133517E+00    0.11672E-03   -0.29715E-05  4664   0.436E-03    0.650E-03
RMM:   6    -0.115216733041E+00   -0.13600E-04   -0.26396E-05  5139   0.147E-03    0.123E-03
RMM:   7    -0.115222489713E+00   -0.57567E-05   -0.29621E-05  6148   0.700E-04    0.425E-04
 Linear response progress:
  Degree of freedom:   7/125
       N       E                     dE             d eps       ncg     rms          rms(c)
RMM:   1    -0.137583348575E+00   -0.13758E+00    0.21079E-02  7162   0.377E-01
RMM:   2    -0.116835926747E+00    0.20747E-01   -0.70562E-03  4329   0.961E-02    0.186E-01
RMM:   3    -0.115757519055E+00    0.10784E-02   -0.10740E-03  4518   0.281E-02    0.939E-02
RMM:   4    -0.115183465669E+00    0.57405E-03   -0.33513E-04  4514   0.156E-02    0.268E-02
RMM:   5    -0.115064068873E+00    0.11940E-03   -0.41609E-05  4638   0.434E-03    0.661E-03
RMM:   6    -0.115073965041E+00   -0.98962E-05   -0.30984E-05  4994   0.143E-03    0.189E-03
 Linear response progress:
  Degree of freedom:   8/125
       N       E                     dE             d eps       ncg     rms          rms(c)
RMM:   1    -0.137413115121E+00   -0.13741E+00    0.19931E-02  7060   0.372E-01
RMM:   2    -0.117475193099E+00    0.19938E-01   -0.67613E-03  4341   0.916E-02    0.185E-01
RMM:   3    -0.116263882181E+00    0.12113E-02   -0.89283E-04  4511   0.276E-02    0.937E-02
RMM:   4    -0.115650639274E+00    0.61324E-03   -0.21422E-04  4486   0.154E-02    0.266E-02
RMM:   5    -0.115553740560E+00    0.96899E-04   -0.17630E-05  4639   0.434E-03    0.660E-03
RMM:   6    -0.115571473307E+00   -0.17733E-04   -0.37912E-05  4972   0.144E-03    0.183E-03
RMM:   7    -0.115574823256E+00   -0.33499E-05   -0.24398E-05  5408   0.745E-04    0.775E-04
 Linear response progress:
  Degree of freedom:   9/125
       N       E                     dE             d eps       ncg     rms          rms(c)
RMM:   1    -0.137385616020E+00   -0.13739E+00    0.18303E-02  7115   0.388E-01
RMM:   2    -0.116622703525E+00    0.20763E-01   -0.74192E-03  4340   0.997E-02    0.183E-01
RMM:   3    -0.115539765716E+00    0.10829E-02   -0.10727E-03  4538   0.281E-02    0.930E-02
RMM:   4    -0.114980157708E+00    0.55961E-03   -0.33436E-04  4538   0.158E-02    0.263E-02
RMM:   5    -0.114876978023E+00    0.10318E-03   -0.39077E-05  4661   0.431E-03    0.649E-03
RMM:   6    -0.114892240403E+00   -0.15262E-04   -0.50664E-05  5223   0.147E-03    0.157E-03
RMM:   7    -0.114897988536E+00   -0.57481E-05   -0.61710E-05  6080   0.765E-04    0.613E-04
 Linear response progress:
  Degree of freedom:  10/125
       N       E                     dE             d eps       ncg     rms          rms(c)
RMM:   1    -0.137591077219E+00   -0.13759E+00    0.16710E-02  7118   0.385E-01
RMM:   2    -0.116357272497E+00    0.21234E-01   -0.71151E-03  4328   0.992E-02    0.184E-01
RMM:   3    -0.115412827040E+00    0.94445E-03   -0.10348E-03  4527   0.282E-02    0.931E-02
RMM:   4    -0.114908161743E+00    0.50467E-03   -0.30773E-04  4506   0.158E-02    0.264E-02
RMM:   5    -0.114808110619E+00    0.10005E-03   -0.26997E-05  4675   0.434E-03    0.643E-03
RMM:   6    -0.114823723637E+00   -0.15613E-04   -0.74165E-05  5207   0.147E-03    0.129E-03
RMM:   7    -0.114830643753E+00   -0.69201E-05   -0.10330E-04  6128   0.740E-04    0.523E-04
RMM:   8    -0.114829019067E+00    0.16247E-05   -0.79321E-05  6697   0.617E-04    0.230E-04
 Linear response progress:
  Degree of freedom:  11/125
       N       E                     dE             d eps       ncg     rms          rms(c)
RMM:   1    -0.137285426973E+00   -0.13729E+00    0.18709E-02  7151   0.388E-01
RMM:   2    -0.115960269674E+00    0.21325E-01   -0.73488E-03  4334   0.994E-02    0.183E-01
RMM:   3    -0.114967691752E+00    0.99258E-03   -0.11457E-03  4537   0.281E-02    0.931E-02
RMM:   4    -0.114455151140E+00    0.51254E-03   -0.39758E-04  4527   0.158E-02    0.263E-02
RMM:   5    -0.114357735361E+00    0.97416E-04   -0.54599E-05  4682   0.430E-03    0.647E-03
RMM:   6    -0.114372289415E+00   -0.14554E-04   -0.71297E-05  5205   0.147E-03    0.125E-03
RMM:   7    -0.114374846747E+00   -0.25573E-05   -0.52900E-05  6084   0.711E-04    0.471E-04
 Linear response progress:
  Degree of freedom:  12/125
       N       E                     dE             d eps       ncg     rms          rms(c)
RMM:   1    -0.136142501340E+00   -0.13614E+00    0.53238E-02  7215   0.381E-01
RMM:   2    -0.114967855620E+00    0.21175E-01   -0.84492E-03  4328   0.982E-02    0.187E-01
RMM:   3    -0.114091725713E+00    0.87613E-03   -0.80619E-04  4538   0.262E-02    0.975E-02
RMM:   4    -0.113574128013E+00    0.51760E-03   -0.20722E-04  4553   0.149E-02    0.269E-02
RMM:   5    -0.113476978877E+00    0.97149E-04    0.19242E-07  4640   0.400E-03    0.661E-03
RMM:   6    -0.113489485880E+00   -0.12507E-04    0.97392E-07  4959   0.144E-03    0.186E-03
RMM:   7    -0.113494474502E+00   -0.49886E-05    0.23640E-06  5438   0.689E-04    0.759E-04
 Linear response progress:
  Degree of freedom:  13/125
       N       E                     dE             d eps       ncg     rms          rms(c)
RMM:   1    -0.134579200955E+00   -0.13458E+00    0.41788E-02  7237   0.377E-01
RMM:   2    -0.114213944936E+00    0.20365E-01   -0.80665E-03  4344   0.101E-01    0.178E-01
RMM:   3    -0.113432766008E+00    0.78118E-03   -0.75667E-04  4543   0.241E-02    0.945E-02
RMM:   4    -0.112920547752E+00    0.51222E-03   -0.28282E-04  4530   0.143E-02    0.245E-02
RMM:   5    -0.112835931940E+00    0.84616E-04   -0.27842E-05  4655   0.366E-03    0.623E-03
RMM:   6    -0.112850938348E+00   -0.15006E-04   -0.12987E-05  5072   0.141E-03    0.170E-03
RMM:   7    -0.112856266329E+00   -0.53280E-05   -0.20031E-05  5661   0.727E-04    0.769E-04
 Linear response progress:
  Degree of freedom:  14/125
       N       E                     dE             d eps       ncg     rms          rms(c)
RMM:   1    -0.138123931895E+00   -0.13812E+00    0.19992E-02  7067   0.373E-01
RMM:   2    -0.117020593535E+00    0.21103E-01   -0.67899E-03  4327   0.935E-02    0.186E-01
RMM:   3    -0.116009161786E+00    0.10114E-02   -0.11100E-03  4507   0.280E-02    0.941E-02
RMM:   4    -0.115444845308E+00    0.56432E-03   -0.37561E-04  4501   0.154E-02    0.272E-02
RMM:   5    -0.115318887997E+00    0.12596E-03   -0.56480E-05  4642   0.433E-03    0.676E-03
RMM:   6    -0.115332079549E+00   -0.13192E-04   -0.48404E-05  5004   0.132E-03    0.173E-03
RMM:   7    -0.115339067213E+00   -0.69877E-05   -0.48411E-05  5549   0.650E-04    0.516E-04
 Linear response progress:
  Degree of freedom:  15/125
       N       E                     dE             d eps       ncg     rms          rms(c)
RMM:   1    -0.138775488075E+00   -0.13878E+00    0.18862E-02  7228   0.380E-01
RMM:   2    -0.118175184345E+00    0.20600E-01   -0.74562E-03  4340   0.999E-02    0.189E-01
RMM:   3    -0.116941488497E+00    0.12337E-02   -0.98286E-04  4507   0.287E-02    0.954E-02
RMM:   4    -0.116292412111E+00    0.64908E-03   -0.27578E-04  4512   0.162E-02    0.268E-02
RMM:   5    -0.116176612893E+00    0.11580E-03   -0.22669E-05  4629   0.431E-03    0.665E-03
RMM:   6    -0.116188706218E+00   -0.12093E-04   -0.20189E-05  5105   0.139E-03    0.128E-03
RMM:   7    -0.116194739748E+00   -0.60335E-05   -0.16821E-05  6078   0.618E-04    0.453E-04
 Linear response progress:
  Degree of freedom:  16/125
       N       E                     dE             d eps       ncg     rms          rms(c)
RMM:   1    -0.138366695793E+00   -0.13837E+00    0.21240E-02  7073   0.380E-01
RMM:   2    -0.118450121730E+00    0.19917E-01   -0.69426E-03  4322   0.942E-02    0.188E-01
RMM:   3    -0.117144150198E+00    0.13060E-02   -0.82579E-04  4501   0.284E-02    0.949E-02
RMM:   4    -0.116480544424E+00    0.66361E-03   -0.15543E-04  4493   0.156E-02    0.271E-02
RMM:   5    -0.116367781461E+00    0.11276E-03    0.18255E-05  4644   0.438E-03    0.657E-03
RMM:   6    -0.116385433948E+00   -0.17652E-04    0.78924E-06  4944   0.141E-03    0.125E-03
RMM:   7    -0.116391482785E+00   -0.60488E-05   -0.22986E-07  5692   0.564E-04    0.463E-04
 Linear response progress:
  Degree of freedom:  17/125
       N       E                     dE             d eps       ncg     rms          rms(c)
RMM:   1    -0.137943997175E+00   -0.13794E+00    0.24398E-02  7192   0.380E-01
RMM:   2    -0.117560784207E+00    0.20383E-01   -0.70260E-03  4333   0.975E-02    0.187E-01
RMM:   3    -0.116374535178E+00    0.11862E-02   -0.99647E-04  4509   0.284E-02    0.946E-02
RMM:   4    -0.115758919249E+00    0.61562E-03   -0.29314E-04  4513   0.158E-02    0.267E-02
RMM:   5    -0.115645945484E+00    0.11297E-03   -0.28836E-05  4688   0.434E-03    0.655E-03
RMM:   6    -0.115659651910E+00   -0.13706E-04   -0.13607E-05  5158   0.146E-03    0.123E-03
RMM:   7    -0.115664827064E+00   -0.51752E-05   -0.10529E-05  6095   0.687E-04    0.451E-04
 Linear response progress:
  Degree of freedom:  18/125
       N       E                     dE             d eps       ncg     rms          rms(c)
RMM:   1    -0.137999604661E+00   -0.13800E+00    0.21710E-02  7053   0.376E-01
RMM:   2    -0.117067768576E+00    0.20932E-01   -0.73944E-03  4325   0.934E-02    0.186E-01
RMM:   3    -0.115949907809E+00    0.11179E-02   -0.11695E-03  4502   0.278E-02    0.942E-02
RMM:   4    -0.115359688140E+00    0.59022E-03   -0.38505E-04  4496   0.154E-02    0.267E-02
RMM:   5    -0.115247633020E+00    0.11206E-03   -0.59415E-05  4628   0.427E-03    0.650E-03
RMM:   6    -0.115262125243E+00   -0.14492E-04   -0.21720E-05  4993   0.141E-03    0.121E-03
RMM:   7    -0.115265325388E+00   -0.32001E-05   -0.18903E-05  5767   0.560E-04    0.458E-04
 Linear response progress:
  Degree of freedom:  19/125
       N       E                     dE             d eps       ncg     rms          rms(c)
RMM:   1    -0.138189295543E+00   -0.13819E+00    0.19997E-02  7176   0.379E-01
RMM:   2    -0.117665556631E+00    0.20524E-01   -0.73692E-03  4332   0.986E-02    0.186E-01
RMM:   3    -0.116456760792E+00    0.12088E-02   -0.95783E-04  4525   0.282E-02    0.944E-02
RMM:   4    -0.115835642789E+00    0.62112E-03   -0.26483E-04  4538   0.158E-02    0.265E-02
RMM:   5    -0.115735110814E+00    0.10053E-03   -0.16205E-05  4630   0.426E-03    0.652E-03
RMM:   6    -0.115747536968E+00   -0.12426E-04   -0.65711E-06  5043   0.139E-03    0.122E-03
RMM:   7    -0.115753449675E+00   -0.59127E-05   -0.78577E-06  6011   0.606E-04    0.449E-04
 Linear response progress:
  Degree of freedom:  20/125
       N       E                     dE             d eps       ncg     rms          rms(c)
RMM:   1    -0.137841173693E+00   -0.13784E+00    0.18802E-02  7117   0.387E-01
RMM:   2    -0.116567835075E+00    0.21273E-01   -0.72158E-03  4332   0.100E-01    0.185E-01
RMM:   3    -0.115512079241E+00    0.10558E-02   -0.10613E-03  4536   0.284E-02    0.937E-02
RMM:   4    -0.114966603089E+00    0.54548E-03   -0.34720E-04  4529   0.160E-02    0.265E-02
RMM:   5    -0.114862237509E+00    0.10437E-03   -0.39088E-05  4697   0.435E-03    0.649E-03
RMM:   6    -0.114873538994E+00   -0.11301E-04   -0.26286E-05  5247   0.151E-03    0.125E-03
RMM:   7    -0.114883745774E+00   -0.10207E-04   -0.74096E-05  6222   0.766E-04    0.470E-04
RMM:   8    -0.114882286297E+00    0.14595E-05   -0.55032E-05  6821   0.660E-04    0.217E-04
 Linear response progress:
  Degree of freedom:  21/125
       N       E                     dE             d eps       ncg     rms          rms(c)
RMM:   1    -0.137597783155E+00   -0.13760E+00    0.21358E-02  7113   0.385E-01
RMM:   2    -0.116441276635E+00    0.21157E-01   -0.69384E-03  4337   0.997E-02    0.185E-01
RMM:   3    -0.115408102214E+00    0.10332E-02   -0.10559E-03  4536   0.283E-02    0.937E-02
RMM:   4    -0.114877116862E+00    0.53099E-03   -0.34778E-04  4532   0.159E-02    0.265E-02
RMM:   5    -0.114780224821E+00    0.96892E-04   -0.35571E-05  4674   0.433E-03    0.649E-03
RMM:   6    -0.114789694276E+00   -0.94695E-05   -0.13097E-05  5146   0.146E-03    0.121E-03
 Linear response progress:
  Degree of freedom:  22/125
       N       E                     dE             d eps       ncg     rms          rms(c)
RMM:   1    -0.137712725215E+00   -0.13771E+00    0.20874E-02  7130   0.387E-01
RMM:   2    -0.116017229192E+00    0.21695E-01   -0.70848E-03  4332   0.101E-01    0.185E-01
RMM:   3    -0.115077827137E+00    0.93940E-03   -0.11741E-03  4552   0.285E-02    0.938E-02
RMM:   4    -0.114551762649E+00    0.52606E-03   -0.42682E-04  4536   0.160E-02    0.265E-02
RMM:   5    -0.114433824216E+00    0.11794E-03   -0.63937E-05  4672   0.436E-03    0.648E-03
RMM:   6    -0.114446455220E+00   -0.12631E-04   -0.71691E-05  5219   0.149E-03    0.122E-03
RMM:   7    -0.114454023059E+00   -0.75678E-05   -0.10206E-04  6199   0.739E-04    0.447E-04
RMM:   8    -0.114451288411E+00    0.27346E-05   -0.69689E-05  6833   0.634E-04    0.197E-04
 Linear response progress:
  Degree of freedom:  23/125
       N       E                     dE             d eps       ncg     rms          rms(c)
RMM:   1    -0.137796863674E+00   -0.13780E+00    0.21524E-02  7127   0.389E-01
RMM:   2    -0.116643227824E+00    0.21154E-01   -0.74100E-03  4339   0.101E-01    0.186E-01
RMM:   3    -0.115659337765E+00    0.98389E-03   -0.11112E-03  4538   0.286E-02    0.940E-02
RMM:   4    -0.115120222477E+00    0.53912E-03   -0.35898E-04  4533   0.161E-02    0.265E-02
RMM:   5    -0.115004176817E+00    0.11605E-03   -0.45244E-05  4648   0.437E-03    0.652E-03
RMM:   6    -0.115017486256E+00   -0.13309E-04   -0.70421E-05  5074   0.149E-03    0.146E-03
RMM:   7    -0.115021330311E+00   -0.38441E-05   -0.59826E-05  5680   0.793E-04    0.624E-04
 Linear response progress:
  Degree of freedom:  24/125
       N       E                     dE             d eps       ncg     rms          rms(c)
RMM:   1    -0.137739698794E+00   -0.13774E+00    0.21707E-02  7103   0.386E-01
RMM:   2    -0.116661743134E+00    0.21078E-01   -0.73781E-03  4352   0.996E-02    0.186E-01
RMM:   3    -0.115626418821E+00    0.10353E-02   -0.10491E-03  4560   0.286E-02    0.941E-02
RMM:   4    -0.115106454874E+00    0.51996E-03   -0.31983E-04  4546   0.161E-02    0.266E-02
RMM:   5    -0.115012137368E+00    0.94318E-04   -0.31495E-05  4685   0.441E-03    0.652E-03
RMM:   6    -0.115023273449E+00   -0.11136E-04   -0.27298E-05  5205   0.153E-03    0.144E-03
RMM:   7    -0.115026594369E+00   -0.33209E-05   -0.18176E-05  5849   0.841E-04    0.623E-04
 Linear response progress:
  Degree of freedom:  25/125
       N       E                     dE             d eps       ncg     rms          rms(c)
RMM:   1    -0.137867169358E+00   -0.13787E+00    0.20279E-02  7124   0.390E-01
RMM:   2    -0.116869166271E+00    0.20998E-01   -0.73433E-03  4332   0.100E-01    0.185E-01
RMM:   3    -0.115782247183E+00    0.10869E-02   -0.10435E-03  4542   0.285E-02    0.940E-02
RMM:   4    -0.115210777828E+00    0.57147E-03   -0.32257E-04  4505   0.160E-02    0.265E-02
RMM:   5    -0.115096712320E+00    0.11407E-03   -0.34810E-05  4656   0.436E-03    0.651E-03
RMM:   6    -0.115107591806E+00   -0.10879E-04   -0.29896E-05  5098   0.149E-03    0.147E-03
RMM:   7    -0.115112851546E+00   -0.52597E-05   -0.32525E-05  5750   0.790E-04    0.626E-04
 Linear response progress:
  Degree of freedom:  26/125
       N       E                     dE             d eps       ncg     rms          rms(c)
RMM:   1    -0.137527192610E+00   -0.13753E+00    0.21576E-02  7102   0.366E-01
RMM:   2    -0.116060081687E+00    0.21467E-01   -0.72849E-03  4322   0.907E-02    0.185E-01
RMM:   3    -0.114985493826E+00    0.10746E-02   -0.10643E-03  4485   0.271E-02    0.937E-02
RMM:   4    -0.114462469879E+00    0.52302E-03   -0.33991E-04  4485   0.151E-02    0.266E-02
RMM:   5    -0.114378339351E+00    0.84131E-04   -0.46643E-05  4623   0.422E-03    0.648E-03
RMM:   6    -0.114396810443E+00   -0.18471E-04   -0.42136E-05  4909   0.144E-03    0.117E-03
RMM:   7    -0.114395773736E+00    0.10367E-05   -0.10238E-05  5717   0.565E-04    0.410E-04
 Linear response progress:
  Degree of freedom:  27/125
       N       E                     dE             d eps       ncg     rms          rms(c)
RMM:   1    -0.137572112508E+00   -0.13757E+00    0.22959E-02  7208   0.369E-01
RMM:   2    -0.117397936616E+00    0.20174E-01   -0.73106E-03  4334   0.958E-02    0.185E-01
RMM:   3    -0.116177106489E+00    0.12208E-02   -0.92289E-04  4551   0.275E-02    0.938E-02
RMM:   4    -0.115558600178E+00    0.61851E-03   -0.24755E-04  4531   0.154E-02    0.265E-02
RMM:   5    -0.115442274137E+00    0.11633E-03   -0.22407E-06  4665   0.423E-03    0.648E-03
RMM:   6    -0.115450811329E+00   -0.85372E-05    0.45410E-06  5083   0.147E-03    0.118E-03
 Linear response progress:
  Degree of freedom:  28/125
       N       E                     dE             d eps       ncg     rms          rms(c)
RMM:   1    -0.137834042520E+00   -0.13783E+00    0.20699E-02  7068   0.368E-01
RMM:   2    -0.117359092204E+00    0.20475E-01   -0.72512E-03  4327   0.917E-02    0.186E-01
RMM:   3    -0.116156610248E+00    0.12025E-02   -0.10433E-03  4495   0.272E-02    0.940E-02
RMM:   4    -0.115554315580E+00    0.60229E-03   -0.30887E-04  4516   0.151E-02    0.266E-02
RMM:   5    -0.115454050218E+00    0.10027E-03   -0.40183E-05  4671   0.420E-03    0.651E-03
RMM:   6    -0.115475381722E+00   -0.21332E-04   -0.96182E-05  4989   0.141E-03    0.120E-03
RMM:   7    -0.115479730341E+00   -0.43486E-05   -0.10542E-04  5630   0.575E-04    0.479E-04
RMM:   8    -0.115477194926E+00    0.25354E-05   -0.72212E-05  6098   0.463E-04    0.208E-04
 Linear response progress:
  Degree of freedom:  29/125
       N       E                     dE             d eps       ncg     rms          rms(c)
RMM:   1    -0.138396893658E+00   -0.13840E+00    0.15596E-02  7171   0.369E-01
RMM:   2    -0.116721943732E+00    0.21675E-01   -0.73356E-03  4324   0.952E-02    0.186E-01
RMM:   3    -0.115660716399E+00    0.10612E-02   -0.10978E-03  4534   0.274E-02    0.940E-02
RMM:   4    -0.115103628988E+00    0.55709E-03   -0.36353E-04  4529   0.153E-02    0.265E-02
RMM:   5    -0.114989325043E+00    0.11430E-03   -0.43279E-05  4640   0.418E-03    0.649E-03
RMM:   6    -0.115000028719E+00   -0.10704E-04   -0.28547E-05  5006   0.140E-03    0.120E-03
RMM:   7    -0.115007793435E+00   -0.77647E-05   -0.58056E-05  5919   0.621E-04    0.461E-04
 Linear response progress:
  Degree of freedom:  30/125
       N       E                     dE             d eps       ncg     rms          rms(c)
RMM:   1    -0.137386761043E+00   -0.13739E+00    0.24611E-02  7104   0.378E-01
RMM:   2    -0.117820839476E+00    0.19566E-01   -0.70655E-03  4333   0.942E-02    0.185E-01
RMM:   3    -0.116559560216E+00    0.12613E-02   -0.84383E-04  4526   0.278E-02    0.939E-02
RMM:   4    -0.115923541564E+00    0.63602E-03   -0.18243E-04  4513   0.155E-02    0.266E-02
RMM:   5    -0.115826239699E+00    0.97302E-04    0.26674E-06  4653   0.426E-03    0.651E-03
RMM:   6    -0.115845002950E+00   -0.18763E-04    0.56219E-07  5026   0.142E-03    0.119E-03
RMM:   7    -0.115849116681E+00   -0.41137E-05    0.51262E-06  5734   0.578E-04    0.444E-04
 Linear response progress:
  Degree of freedom:  31/125
       N       E                     dE             d eps       ncg     rms          rms(c)
RMM:   1    -0.137505287759E+00   -0.13751E+00    0.23881E-02  7144   0.382E-01
RMM:   2    -0.115201947410E+00    0.22303E-01   -0.73924E-03  4345   0.983E-02    0.185E-01
RMM:   3    -0.114441889757E+00    0.76006E-03   -0.13217E-03  4546   0.282E-02    0.939E-02
RMM:   4    -0.114017394970E+00    0.42449E-03   -0.50323E-04  4530   0.158E-02    0.266E-02
RMM:   5    -0.113905982964E+00    0.11141E-03   -0.79402E-05  4709   0.434E-03    0.650E-03
RMM:   6    -0.113910934308E+00   -0.49513E-05   -0.18946E-05  5178   0.152E-03    0.120E-03
 Linear response progress:
  Degree of freedom:  32/125
       N       E                     dE             d eps       ncg     rms          rms(c)
RMM:   1    -0.137755356629E+00   -0.13776E+00    0.20751E-02  7040   0.383E-01
RMM:   2    -0.117198748253E+00    0.20557E-01   -0.73365E-03  4330   0.947E-02    0.186E-01
RMM:   3    -0.116156123861E+00    0.10426E-02   -0.10463E-03  4503   0.280E-02    0.940E-02
RMM:   4    -0.115601406273E+00    0.55472E-03   -0.31855E-04  4498   0.156E-02    0.266E-02
RMM:   5    -0.115491723708E+00    0.10968E-03   -0.59500E-05  4641   0.430E-03    0.653E-03
RMM:   6    -0.115506864573E+00   -0.15141E-04   -0.70804E-05  4943   0.144E-03    0.145E-03
RMM:   7    -0.115507178961E+00   -0.31439E-06   -0.29207E-05  5362   0.693E-04    0.628E-04
 Linear response progress:
  Degree of freedom:  33/125
       N       E                     dE             d eps       ncg     rms          rms(c)
RMM:   1    -0.137759670591E+00   -0.13776E+00    0.21306E-02  7140   0.388E-01
RMM:   2    -0.117462131810E+00    0.20298E-01   -0.67651E-03  4344   0.994E-02    0.185E-01
RMM:   3    -0.116336723250E+00    0.11254E-02   -0.84536E-04  4534   0.284E-02    0.940E-02
RMM:   4    -0.115735182318E+00    0.60154E-03   -0.21247E-04  4526   0.159E-02    0.265E-02
RMM:   5    -0.115632728508E+00    0.10245E-03   -0.13895E-05  4666   0.434E-03    0.653E-03
RMM:   6    -0.115649223187E+00   -0.16495E-04   -0.41581E-05  5103   0.151E-03    0.147E-03
RMM:   7    -0.115653243738E+00   -0.40206E-05   -0.24974E-05  5719   0.818E-04    0.621E-04
 Linear response progress:
  Degree of freedom:  34/125
       N       E                     dE             d eps       ncg     rms          rms(c)
RMM:   1    -0.138232892666E+00   -0.13823E+00    0.15870E-02  7114   0.385E-01
RMM:   2    -0.116438699763E+00    0.21794E-01   -0.73072E-03  4314   0.995E-02    0.185E-01
RMM:   3    -0.115408149664E+00    0.10306E-02   -0.11482E-03  4524   0.284E-02    0.939E-02
RMM:   4    -0.114875165133E+00    0.53298E-03   -0.39043E-04  4518   0.160E-02    0.266E-02
RMM:   5    -0.114771107199E+00    0.10406E-03   -0.54664E-05  4673   0.438E-03    0.650E-03
RMM:   6    -0.114785012763E+00   -0.13906E-04   -0.42593E-05  5117   0.149E-03    0.120E-03
RMM:   7    -0.114788477559E+00   -0.34648E-05   -0.33304E-05  6080   0.681E-04    0.447E-04
 Linear response progress:
  Degree of freedom:  35/125
       N       E                     dE             d eps       ncg     rms          rms(c)
RMM:   1    -0.138029562007E+00   -0.13803E+00    0.18826E-02  7124   0.387E-01
RMM:   2    -0.117773568988E+00    0.20256E-01   -0.68797E-03  4325   0.998E-02    0.186E-01
RMM:   3    -0.116506939053E+00    0.12666E-02   -0.83003E-04  4507   0.285E-02    0.940E-02
RMM:   4    -0.115879404986E+00    0.62753E-03   -0.19103E-04  4529   0.160E-02    0.266E-02
RMM:   5    -0.115788549027E+00    0.90856E-04    0.21207E-06  4683   0.438E-03    0.650E-03
RMM:   6    -0.115802434923E+00   -0.13886E-04    0.15518E-05  5134   0.149E-03    0.122E-03
RMM:   7    -0.115809480780E+00   -0.70459E-05    0.64172E-06  6158   0.714E-04    0.450E-04
 Linear response progress:
  Degree of freedom:  36/125
       N       E                     dE             d eps       ncg     rms          rms(c)
RMM:   1    -0.137895155560E+00   -0.13790E+00    0.19512E-02  7108   0.387E-01
RMM:   2    -0.116927825603E+00    0.20967E-01   -0.71022E-03  4333   0.101E-01    0.185E-01
RMM:   3    -0.115921608962E+00    0.10062E-02   -0.10214E-03  4549   0.285E-02    0.939E-02
RMM:   4    -0.115378768688E+00    0.54284E-03   -0.30848E-04  4549   0.161E-02    0.265E-02
RMM:   5    -0.115274917277E+00    0.10385E-03   -0.37047E-05  4715   0.439E-03    0.649E-03
RMM:   6    -0.115292721808E+00   -0.17805E-04   -0.62517E-05  5225   0.153E-03    0.122E-03
RMM:   7    -0.115299622564E+00   -0.69008E-05   -0.81916E-05  6212   0.774E-04    0.453E-04
 Linear response progress:
  Degree of freedom:  37/125
       N       E                     dE             d eps       ncg     rms          rms(c)
RMM:   1    -0.137880153090E+00   -0.13788E+00    0.19252E-02  7125   0.385E-01
RMM:   2    -0.117271071802E+00    0.20609E-01   -0.69133E-03  4339   0.999E-02    0.186E-01
RMM:   3    -0.116155934356E+00    0.11151E-02   -0.94568E-04  4545   0.285E-02    0.939E-02
RMM:   4    -0.115575025417E+00    0.58091E-03   -0.26258E-04  4516   0.160E-02    0.266E-02
RMM:   5    -0.115469421089E+00    0.10560E-03   -0.18887E-05  4647   0.436E-03    0.649E-03
RMM:   6    -0.115483444632E+00   -0.14024E-04   -0.10479E-05  5026   0.144E-03    0.125E-03
RMM:   7    -0.115487789530E+00   -0.43449E-05   -0.85931E-07  6038   0.658E-04    0.483E-04
 Linear response progress:
  Degree of freedom:  38/125
       N       E                     dE             d eps       ncg     rms          rms(c)
RMM:   1    -0.137749331870E+00   -0.13775E+00    0.19804E-02  7122   0.387E-01
RMM:   2    -0.117252424570E+00    0.20497E-01   -0.71270E-03  4344   0.997E-02    0.185E-01
RMM:   3    -0.116123205208E+00    0.11292E-02   -0.95681E-04  4524   0.284E-02    0.938E-02
RMM:   4    -0.115532588534E+00    0.59062E-03   -0.27296E-04  4520   0.160E-02    0.265E-02
RMM:   5    -0.115430815852E+00    0.10177E-03   -0.28164E-05  4656   0.436E-03    0.648E-03
RMM:   6    -0.115446527345E+00   -0.15711E-04   -0.21812E-05  5129   0.147E-03    0.133E-03
RMM:   7    -0.115450788104E+00   -0.42608E-05   -0.16806E-05  5930   0.731E-04    0.517E-04
 Linear response progress:
  Degree of freedom:  39/125
       N       E                     dE             d eps       ncg     rms          rms(c)
RMM:   1    -0.138160791137E+00   -0.13816E+00    0.15547E-02  7092   0.388E-01
RMM:   2    -0.117793080683E+00    0.20368E-01   -0.71682E-03  4352   0.100E-01    0.185E-01
RMM:   3    -0.116583877270E+00    0.12092E-02   -0.83793E-04  4556   0.285E-02    0.937E-02
RMM:   4    -0.115956930854E+00    0.62695E-03   -0.20051E-04  4524   0.160E-02    0.264E-02
RMM:   5    -0.115860696935E+00    0.96234E-04   -0.20637E-05  4686   0.437E-03    0.650E-03
RMM:   6    -0.115877924747E+00   -0.17228E-04   -0.20920E-05  5210   0.151E-03    0.138E-03
RMM:   7    -0.115880056800E+00   -0.21321E-05    0.13725E-05  6083   0.791E-04    0.554E-04
 Linear response progress:
  Degree of freedom:  40/125
       N       E                     dE             d eps       ncg     rms          rms(c)
RMM:   1    -0.137974882407E+00   -0.13797E+00    0.16242E-02  7111   0.389E-01
RMM:   2    -0.116782227771E+00    0.21193E-01   -0.72408E-03  4333   0.997E-02    0.185E-01
RMM:   3    -0.115684201000E+00    0.10980E-02   -0.10819E-03  4547   0.286E-02    0.938E-02
RMM:   4    -0.115130138375E+00    0.55406E-03   -0.33452E-04  4528   0.160E-02    0.268E-02
RMM:   5    -0.115027326343E+00    0.10281E-03   -0.31368E-05  4630   0.440E-03    0.657E-03
RMM:   6    -0.115036806649E+00   -0.94803E-05   -0.13013E-05  5082   0.142E-03    0.185E-03
 Linear response progress:
  Degree of freedom:  41/125
       N       E                     dE             d eps       ncg     rms          rms(c)
RMM:   1    -0.137551068741E+00   -0.13755E+00    0.17962E-02  7117   0.388E-01
RMM:   2    -0.116260093529E+00    0.21291E-01   -0.69412E-03  4327   0.991E-02    0.185E-01
RMM:   3    -0.115281674954E+00    0.97842E-03   -0.11524E-03  4525   0.284E-02    0.936E-02
RMM:   4    -0.114733767017E+00    0.54791E-03   -0.40871E-04  4522   0.160E-02    0.265E-02
RMM:   5    -0.114613389140E+00    0.12038E-03   -0.58352E-05  4642   0.438E-03    0.659E-03
RMM:   6    -0.114625957231E+00   -0.12568E-04   -0.32632E-05  5172   0.146E-03    0.185E-03
RMM:   7    -0.114631428941E+00   -0.54717E-05   -0.25503E-05  5741   0.831E-04    0.776E-04
 Linear response progress:
  Degree of freedom:  42/125
       N       E                     dE             d eps       ncg     rms          rms(c)
RMM:   1    -0.137963892988E+00   -0.13796E+00    0.16761E-02  7084   0.387E-01
RMM:   2    -0.116420704728E+00    0.21543E-01   -0.71064E-03  4319   0.991E-02    0.186E-01
RMM:   3    -0.115402970362E+00    0.10177E-02   -0.11108E-03  4537   0.287E-02    0.939E-02
RMM:   4    -0.114883549505E+00    0.51942E-03   -0.36254E-04  4537   0.160E-02    0.268E-02
RMM:   5    -0.114774939491E+00    0.10861E-03   -0.44445E-05  4657   0.443E-03    0.658E-03
RMM:   6    -0.114782843154E+00   -0.79037E-05   -0.40339E-05  5134   0.147E-03    0.189E-03
 Linear response progress:
  Degree of freedom:  43/125
       N       E                     dE             d eps       ncg     rms          rms(c)
RMM:   1    -0.137643056260E+00   -0.13764E+00    0.16401E-02  7130   0.385E-01
RMM:   2    -0.116873034897E+00    0.20770E-01   -0.71683E-03  4342   0.988E-02    0.185E-01
RMM:   3    -0.115835178040E+00    0.10379E-02   -0.10177E-03  4513   0.286E-02    0.936E-02
RMM:   4    -0.115284618086E+00    0.55056E-03   -0.30423E-04  4500   0.163E-02    0.270E-02
RMM:   5    -0.115191344387E+00    0.93274E-04   -0.31927E-05  4537   0.540E-03    0.866E-03
RMM:   6    -0.115188715946E+00    0.26284E-05   -0.13346E-05  4681   0.257E-03    0.394E-03
 Linear response progress:
  Degree of freedom:  44/125
       N       E                     dE             d eps       ncg     rms          rms(c)
RMM:   1    -0.137664786309E+00   -0.13766E+00    0.15570E-02  7119   0.385E-01
RMM:   2    -0.117474892140E+00    0.20190E-01   -0.69335E-03  4335   0.986E-02    0.184E-01
RMM:   3    -0.116318807148E+00    0.11561E-02   -0.89860E-04  4520   0.286E-02    0.935E-02
RMM:   4    -0.115692375279E+00    0.62643E-03   -0.23671E-04  4496   0.163E-02    0.270E-02
RMM:   5    -0.115597898487E+00    0.94477E-04   -0.14349E-05  4527   0.539E-03    0.865E-03
RMM:   6    -0.115598285734E+00   -0.38725E-06   -0.30966E-06  4675   0.255E-03    0.394E-03
 Linear response progress:
  Degree of freedom:  45/125
       N       E                     dE             d eps       ncg     rms          rms(c)
RMM:   1    -0.137802720599E+00   -0.13780E+00    0.13153E-02  7093   0.383E-01
RMM:   2    -0.118499865145E+00    0.19303E-01   -0.71488E-03  4350   0.980E-02    0.184E-01
RMM:   3    -0.117207803003E+00    0.12921E-02   -0.79377E-04  4537   0.290E-02    0.931E-02
RMM:   4    -0.116549571748E+00    0.65823E-03   -0.13812E-04  4524   0.163E-02    0.277E-02
RMM:   5    -0.116464796401E+00    0.84775E-04    0.97745E-06  4536   0.553E-03    0.919E-03
RMM:   6    -0.116463779694E+00    0.10167E-05    0.11661E-06  4714   0.261E-03    0.407E-03
 Linear response progress:
  Degree of freedom:  46/125
       N       E                     dE             d eps       ncg     rms          rms(c)
RMM:   1    -0.138192378292E+00   -0.13819E+00    0.17366E-02  7124   0.390E-01
RMM:   2    -0.117064326577E+00    0.21128E-01   -0.75882E-03  4335   0.101E-01    0.185E-01
RMM:   3    -0.115934455519E+00    0.11299E-02   -0.10618E-03  4534   0.286E-02    0.939E-02
RMM:   4    -0.115352194648E+00    0.58226E-03   -0.32386E-04  4528   0.161E-02    0.265E-02
RMM:   5    -0.115244200700E+00    0.10799E-03   -0.35402E-05  4650   0.434E-03    0.649E-03
RMM:   6    -0.115255446949E+00   -0.11246E-04   -0.16697E-05  5187   0.145E-03    0.122E-03
RMM:   7    -0.115260667934E+00   -0.52210E-05   -0.12239E-05  6183   0.675E-04    0.429E-04
 Linear response progress:
  Degree of freedom:  47/125
       N       E                     dE             d eps       ncg     rms          rms(c)
RMM:   1    -0.138139171875E+00   -0.13814E+00    0.17752E-02  7156   0.390E-01
RMM:   2    -0.116494384439E+00    0.21645E-01   -0.73235E-03  4339   0.101E-01    0.185E-01
RMM:   3    -0.115489271184E+00    0.10051E-02   -0.11180E-03  4529   0.286E-02    0.939E-02
RMM:   4    -0.114950125468E+00    0.53915E-03   -0.37113E-04  4531   0.161E-02    0.265E-02
RMM:   5    -0.114836327001E+00    0.11380E-03   -0.41328E-05  4617   0.434E-03    0.649E-03
RMM:   6    -0.114847452513E+00   -0.11126E-04   -0.14026E-05  5071   0.140E-03    0.121E-03
RMM:   7    -0.114854060781E+00   -0.66083E-05   -0.32858E-05  5962   0.596E-04    0.439E-04
 Linear response progress:
  Degree of freedom:  48/125
       N       E                     dE             d eps       ncg     rms          rms(c)
RMM:   1    -0.137843165449E+00   -0.13784E+00    0.20935E-02  7125   0.389E-01
RMM:   2    -0.116636946862E+00    0.21206E-01   -0.74362E-03  4347   0.101E-01    0.185E-01
RMM:   3    -0.115568653301E+00    0.10683E-02   -0.11033E-03  4559   0.285E-02    0.939E-02
RMM:   4    -0.115012572690E+00    0.55608E-03   -0.36746E-04  4560   0.160E-02    0.265E-02
RMM:   5    -0.114903643654E+00    0.10893E-03   -0.43584E-05  4643   0.433E-03    0.651E-03
RMM:   6    -0.114912046375E+00   -0.84027E-05   -0.19041E-05  5205   0.143E-03    0.127E-03
 Linear response progress:
  Degree of freedom:  49/125
       N       E                     dE             d eps       ncg     rms          rms(c)
RMM:   1    -0.137943549289E+00   -0.13794E+00    0.20131E-02  7141   0.381E-01
RMM:   2    -0.117244883370E+00    0.20699E-01   -0.71704E-03  4337   0.994E-02    0.186E-01
RMM:   3    -0.116082482585E+00    0.11624E-02   -0.98838E-04  4513   0.283E-02    0.941E-02
RMM:   4    -0.115484939690E+00    0.59754E-03   -0.29044E-04  4515   0.159E-02    0.265E-02
RMM:   5    -0.115384796125E+00    0.10014E-03   -0.26976E-05  4628   0.431E-03    0.652E-03
RMM:   6    -0.115398154253E+00   -0.13358E-04   -0.13172E-05  5059   0.147E-03    0.159E-03
RMM:   7    -0.115402644706E+00   -0.44905E-05   -0.67950E-06  5603   0.808E-04    0.666E-04
 Linear response progress:
  Degree of freedom:  50/125
       N       E                     dE             d eps       ncg     rms          rms(c)
RMM:   1    -0.137846632809E+00   -0.13785E+00    0.20812E-02  7124   0.381E-01
RMM:   2    -0.117017073035E+00    0.20830E-01   -0.74245E-03  4325   0.987E-02    0.186E-01
RMM:   3    -0.115892021737E+00    0.11251E-02   -0.10615E-03  4508   0.283E-02    0.941E-02
RMM:   4    -0.115313570252E+00    0.57845E-03   -0.32960E-04  4499   0.159E-02    0.265E-02
RMM:   5    -0.115210820529E+00    0.10275E-03   -0.29767E-05  4604   0.431E-03    0.651E-03
RMM:   6    -0.115222852064E+00   -0.12032E-04   -0.12655E-05  5056   0.147E-03    0.160E-03
RMM:   7    -0.115227792702E+00   -0.49406E-05   -0.15524E-05  5536   0.812E-04    0.667E-04
 Linear response progress:
  Degree of freedom:  51/125
       N       E                     dE             d eps       ncg     rms          rms(c)
RMM:   1    -0.138068583387E+00   -0.13807E+00    0.19049E-02  7143   0.383E-01
RMM:   2    -0.117787556542E+00    0.20281E-01   -0.70756E-03  4334   0.994E-02    0.186E-01
RMM:   3    -0.116564363193E+00    0.12232E-02   -0.86739E-04  4539   0.284E-02    0.939E-02
RMM:   4    -0.115960925534E+00    0.60344E-03   -0.20333E-04  4534   0.159E-02    0.266E-02
RMM:   5    -0.115874103206E+00    0.86822E-04   -0.23466E-06  4630   0.435E-03    0.655E-03
RMM:   6    -0.115889932858E+00   -0.15830E-04   -0.10763E-05  5060   0.147E-03    0.179E-03
RMM:   7    -0.115896492626E+00   -0.65598E-05   -0.23195E-05  5607   0.810E-04    0.675E-04
 Linear response progress:
  Degree of freedom:  52/125
       N       E                     dE             d eps       ncg     rms          rms(c)
RMM:   1    -0.138455760824E+00   -0.13846E+00    0.15450E-02  7156   0.389E-01
RMM:   2    -0.117026197909E+00    0.21430E-01   -0.72621E-03  4329   0.101E-01    0.186E-01
RMM:   3    -0.115973270695E+00    0.10529E-02   -0.10508E-03  4503   0.288E-02    0.943E-02
RMM:   4    -0.115420469963E+00    0.55280E-03   -0.31615E-04  4494   0.161E-02    0.268E-02
RMM:   5    -0.115313594932E+00    0.10688E-03   -0.30497E-05  4655   0.448E-03    0.673E-03
RMM:   6    -0.115322270645E+00   -0.86757E-05   -0.14277E-05  5038   0.173E-03    0.250E-03
 Linear response progress:
  Degree of freedom:  53/125
       N       E                     dE             d eps       ncg     rms          rms(c)
RMM:   1    -0.138161817004E+00   -0.13816E+00    0.19133E-02  7165   0.389E-01
RMM:   2    -0.117430528410E+00    0.20731E-01   -0.72764E-03  4335   0.100E-01    0.187E-01
RMM:   3    -0.116238863403E+00    0.11917E-02   -0.10091E-03  4518   0.288E-02    0.944E-02
RMM:   4    -0.115629818020E+00    0.60905E-03   -0.28997E-04  4497   0.161E-02    0.268E-02
RMM:   5    -0.115526505026E+00    0.10331E-03   -0.20611E-05  4646   0.450E-03    0.674E-03
RMM:   6    -0.115538773107E+00   -0.12268E-04   -0.10721E-05  5056   0.175E-03    0.250E-03
RMM:   7    -0.115545634829E+00   -0.68617E-05   -0.10034E-05  5355   0.112E-03    0.737E-04
 Linear response progress:
  Degree of freedom:  54/125
       N       E                     dE             d eps       ncg     rms          rms(c)
RMM:   1    -0.137819715089E+00   -0.13782E+00    0.22846E-02  7141   0.388E-01
RMM:   2    -0.116936187137E+00    0.20884E-01   -0.68755E-03  4333   0.100E-01    0.187E-01
RMM:   3    -0.115877275817E+00    0.10589E-02   -0.10680E-03  4530   0.291E-02    0.943E-02
RMM:   4    -0.115305439657E+00    0.57184E-03   -0.33495E-04  4522   0.161E-02    0.271E-02
RMM:   5    -0.115188813034E+00    0.11663E-03   -0.38358E-05  4652   0.456E-03    0.685E-03
RMM:   6    -0.115198425829E+00   -0.96128E-05   -0.39822E-05  5073   0.161E-03    0.271E-03
 Linear response progress:
  Degree of freedom:  55/125
       N       E                     dE             d eps       ncg     rms          rms(c)
RMM:   1    -0.137585124303E+00   -0.13759E+00    0.19323E-02  7131   0.387E-01
RMM:   2    -0.117123283968E+00    0.20462E-01   -0.70007E-03  4320   0.100E-01    0.185E-01
RMM:   3    -0.115978564258E+00    0.11447E-02   -0.93663E-04  4523   0.284E-02    0.935E-02
RMM:   4    -0.115390709933E+00    0.58785E-03   -0.26545E-04  4516   0.159E-02    0.265E-02
RMM:   5    -0.115290885146E+00    0.99825E-04   -0.18520E-05  4640   0.432E-03    0.648E-03
RMM:   6    -0.115304100614E+00   -0.13215E-04   -0.93688E-06  5037   0.141E-03    0.132E-03
RMM:   7    -0.115308914063E+00   -0.48134E-05   -0.74517E-06  5941   0.643E-04    0.514E-04
 Linear response progress:
  Degree of freedom:  56/125
       N       E                     dE             d eps       ncg     rms          rms(c)
RMM:   1    -0.137703839134E+00   -0.13770E+00    0.19058E-02  7135   0.388E-01
RMM:   2    -0.117258494324E+00    0.20445E-01   -0.74307E-03  4322   0.100E-01    0.185E-01
RMM:   3    -0.116101290032E+00    0.11572E-02   -0.94727E-04  4549   0.285E-02    0.936E-02
RMM:   4    -0.115514338185E+00    0.58695E-03   -0.25010E-04  4539   0.159E-02    0.265E-02
RMM:   5    -0.115409189214E+00    0.10515E-03   -0.16412E-05  4671   0.432E-03    0.647E-03
RMM:   6    -0.115422857864E+00   -0.13669E-04   -0.34101E-05  5135   0.144E-03    0.125E-03
RMM:   7    -0.115428472937E+00   -0.56151E-05   -0.35019E-05  6056   0.658E-04    0.480E-04
 Linear response progress:
  Degree of freedom:  57/125
       N       E                     dE             d eps       ncg     rms          rms(c)
RMM:   1    -0.137632454865E+00   -0.13763E+00    0.18529E-02  7128   0.388E-01
RMM:   2    -0.117647060381E+00    0.19985E-01   -0.72332E-03  4331   0.100E-01    0.184E-01
RMM:   3    -0.116426041585E+00    0.12210E-02   -0.87480E-04  4543   0.283E-02    0.934E-02
RMM:   4    -0.115813637024E+00    0.61240E-03   -0.21796E-04  4522   0.159E-02    0.263E-02
RMM:   5    -0.115722652918E+00    0.90984E-04   -0.10976E-05  4669   0.431E-03    0.649E-03
RMM:   6    -0.115739321836E+00   -0.16669E-04   -0.45558E-05  5121   0.145E-03    0.136E-03
RMM:   7    -0.115744855976E+00   -0.55341E-05   -0.44566E-05  5970   0.727E-04    0.552E-04
 Linear response progress:
  Degree of freedom:  58/125
       N       E                     dE             d eps       ncg     rms          rms(c)
RMM:   1    -0.138482498847E+00   -0.13848E+00    0.15246E-02  7158   0.390E-01
RMM:   2    -0.117048039036E+00    0.21434E-01   -0.70274E-03  4340   0.101E-01    0.186E-01
RMM:   3    -0.115925003184E+00    0.11230E-02   -0.99609E-04  4542   0.286E-02    0.941E-02
RMM:   4    -0.115343905877E+00    0.58110E-03   -0.30326E-04  4531   0.161E-02    0.266E-02
RMM:   5    -0.115245863739E+00    0.98042E-04   -0.25852E-05  4662   0.436E-03    0.650E-03
RMM:   6    -0.115260616115E+00   -0.14752E-04   -0.15944E-05  5154   0.145E-03    0.121E-03
RMM:   7    -0.115266936237E+00   -0.63201E-05   -0.26695E-05  6149   0.670E-04    0.424E-04
 Linear response progress:
  Degree of freedom:  59/125
       N       E                     dE             d eps       ncg     rms          rms(c)
RMM:   1    -0.137501338157E+00   -0.13750E+00    0.24464E-02  7114   0.391E-01
RMM:   2    -0.117299042471E+00    0.20202E-01   -0.73620E-03  4335   0.101E-01    0.186E-01
RMM:   3    -0.116151072523E+00    0.11480E-02   -0.98042E-04  4544   0.285E-02    0.940E-02
RMM:   4    -0.115569983625E+00    0.58109E-03   -0.28409E-04  4546   0.161E-02    0.265E-02
RMM:   5    -0.115470628395E+00    0.99355E-04   -0.28904E-05  4682   0.438E-03    0.648E-03
RMM:   6    -0.115482404743E+00   -0.11776E-04   -0.27371E-05  5184   0.150E-03    0.119E-03
RMM:   7    -0.115488544379E+00   -0.61396E-05   -0.38184E-05  6213   0.717E-04    0.426E-04
 Linear response progress:
  Degree of freedom:  60/125
       N       E                     dE             d eps       ncg     rms          rms(c)
RMM:   1    -0.138123926910E+00   -0.13812E+00    0.18811E-02  7146   0.393E-01
RMM:   2    -0.117723471708E+00    0.20400E-01   -0.72539E-03  4331   0.102E-01    0.186E-01
RMM:   3    -0.116498206821E+00    0.12253E-02   -0.90909E-04  4558   0.287E-02    0.941E-02
RMM:   4    -0.115874136559E+00    0.62407E-03   -0.23452E-04  4533   0.162E-02    0.265E-02
RMM:   5    -0.115771832343E+00    0.10230E-03   -0.14181E-05  4663   0.438E-03    0.649E-03
RMM:   6    -0.115787452160E+00   -0.15620E-04   -0.21816E-05  5260   0.149E-03    0.121E-03
RMM:   7    -0.115793020001E+00   -0.55678E-05   -0.18046E-05  6223   0.726E-04    0.430E-04
 Linear response progress:
  Degree of freedom:  61/125
       N       E                     dE             d eps       ncg     rms          rms(c)
RMM:   1    -0.137641690230E+00   -0.13764E+00    0.22192E-02  7190   0.373E-01
RMM:   2    -0.117417083026E+00    0.20225E-01   -0.68013E-03  4315   0.989E-02    0.185E-01
RMM:   3    -0.116226193299E+00    0.11909E-02   -0.93979E-04  4526   0.283E-02    0.939E-02
RMM:   4    -0.115601437099E+00    0.62476E-03   -0.27373E-04  4527   0.158E-02    0.265E-02
RMM:   5    -0.115499291648E+00    0.10215E-03   -0.29916E-05  4676   0.435E-03    0.650E-03
RMM:   6    -0.115518923736E+00   -0.19632E-04   -0.55246E-05  5118   0.153E-03    0.127E-03
RMM:   7    -0.115525927511E+00   -0.70038E-05   -0.69335E-05  6024   0.784E-04    0.517E-04
 Linear response progress:
  Degree of freedom:  62/125
       N       E                     dE             d eps       ncg     rms          rms(c)
RMM:   1    -0.137192113698E+00   -0.13719E+00    0.24588E-02  7002   0.363E-01
RMM:   2    -0.117797828459E+00    0.19394E-01   -0.71925E-03  4314   0.930E-02    0.185E-01
RMM:   3    -0.116589127003E+00    0.12087E-02   -0.97264E-04  4501   0.278E-02    0.939E-02
RMM:   4    -0.115969193213E+00    0.61993E-03   -0.27220E-04  4473   0.155E-02    0.266E-02
RMM:   5    -0.115863664841E+00    0.10553E-03   -0.40719E-05  4677   0.434E-03    0.650E-03
RMM:   6    -0.115886064157E+00   -0.22399E-04   -0.87497E-05  5009   0.150E-03    0.124E-03
RMM:   7    -0.115888785160E+00   -0.27210E-05   -0.76086E-05  5620   0.683E-04    0.521E-04
 Linear response progress:
  Degree of freedom:  63/125
       N       E                     dE             d eps       ncg     rms          rms(c)
RMM:   1    -0.137360015766E+00   -0.13736E+00    0.14555E-02  7112   0.385E-01
RMM:   2    -0.117217141549E+00    0.20143E-01   -0.73852E-03  4318   0.994E-02    0.184E-01
RMM:   3    -0.116081788916E+00    0.11354E-02   -0.93852E-04  4510   0.280E-02    0.933E-02
RMM:   4    -0.115491010641E+00    0.59078E-03   -0.25653E-04  4502   0.158E-02    0.263E-02
RMM:   5    -0.115393300460E+00    0.97710E-04   -0.22322E-05  4595   0.428E-03    0.682E-03
RMM:   6    -0.115401312844E+00   -0.80124E-05   -0.82973E-06  5049   0.146E-03    0.257E-03
 Linear response progress:
  Degree of freedom:  64/125
       N       E                     dE             d eps       ncg     rms          rms(c)
RMM:   1    -0.137616344516E+00   -0.13762E+00    0.98056E-03  7096   0.383E-01
RMM:   2    -0.116834942366E+00    0.20781E-01   -0.71877E-03  4321   0.998E-02    0.184E-01
RMM:   3    -0.115795932189E+00    0.10390E-02   -0.99510E-04  4509   0.284E-02    0.932E-02
RMM:   4    -0.115251775597E+00    0.54416E-03   -0.28698E-04  4533   0.157E-02    0.266E-02
RMM:   5    -0.115146183159E+00    0.10559E-03   -0.27080E-05  4619   0.440E-03    0.668E-03
RMM:   6    -0.115153018384E+00   -0.68352E-05   -0.18043E-05  4959   0.164E-03    0.256E-03
 Linear response progress:
  Degree of freedom:  65/125
       N       E                     dE             d eps       ncg     rms          rms(c)
RMM:   1    -0.137983725876E+00   -0.13798E+00    0.98836E-03  7137   0.385E-01
RMM:   2    -0.116553049080E+00    0.21431E-01   -0.73334E-03  4318   0.100E-01    0.185E-01
RMM:   3    -0.115532624338E+00    0.10204E-02   -0.10343E-03  4520   0.283E-02    0.936E-02
RMM:   4    -0.114998227884E+00    0.53440E-03   -0.31228E-04  4521   0.159E-02    0.265E-02
RMM:   5    -0.114895556335E+00    0.10267E-03   -0.27405E-05  4600   0.435E-03    0.685E-03
RMM:   6    -0.114903698875E+00   -0.81425E-05   -0.97137E-06  4964   0.160E-03    0.249E-03
 Linear response progress:
  Degree of freedom:  66/125
       N       E                     dE             d eps       ncg     rms          rms(c)
RMM:   1    -0.137800567206E+00   -0.13780E+00    0.19963E-02  7141   0.374E-01
RMM:   2    -0.117525924360E+00    0.20275E-01   -0.71866E-03  4328   0.966E-02    0.185E-01
RMM:   3    -0.116336252787E+00    0.11897E-02   -0.92886E-04  4511   0.279E-02    0.939E-02
RMM:   4    -0.115718375799E+00    0.61788E-03   -0.24743E-04  4505   0.156E-02    0.265E-02
RMM:   5    -0.115613198569E+00    0.10518E-03   -0.80952E-06  4662   0.428E-03    0.651E-03
RMM:   6    -0.115630241643E+00   -0.17043E-04    0.27940E-06  5075   0.146E-03    0.133E-03
RMM:   7    -0.115633367377E+00   -0.31257E-05    0.20951E-05  5894   0.715E-04    0.557E-04
 Linear response progress:
  Degree of freedom:  67/125
       N       E                     dE             d eps       ncg     rms          rms(c)
RMM:   1    -0.137570603027E+00   -0.13757E+00    0.21407E-02  7040   0.370E-01
RMM:   2    -0.117405609807E+00    0.20165E-01   -0.67641E-03  4305   0.919E-02    0.186E-01
RMM:   3    -0.116367442487E+00    0.10382E-02   -0.97895E-04  4499   0.275E-02    0.940E-02
RMM:   4    -0.115817599735E+00    0.54984E-03   -0.29888E-04  4491   0.153E-02    0.266E-02
RMM:   5    -0.115716043427E+00    0.10156E-03   -0.55455E-05  4667   0.426E-03    0.652E-03
RMM:   6    -0.115743253097E+00   -0.27210E-04   -0.19584E-04  4987   0.145E-03    0.125E-03
RMM:   7    -0.115742649286E+00    0.60381E-06   -0.14346E-04  5558   0.649E-04    0.526E-04
RMM:   8    -0.115742641014E+00    0.82721E-08   -0.13357E-04  6067   0.511E-04    0.218E-04
RMM:   9    -0.115741539306E+00    0.11017E-05   -0.11887E-04  6727   0.451E-04    0.764E-05
RMM:  10    -0.115740889979E+00    0.64933E-06   -0.11249E-04  7196   0.433E-04    0.333E-05
RMM:  11    -0.115742041408E+00   -0.11514E-05   -0.12443E-04  7278   0.429E-04    0.135E-05
 Linear response progress:
  Degree of freedom:  68/125
       N       E                     dE             d eps       ncg     rms          rms(c)
RMM:   1    -0.136581861077E+00   -0.13658E+00    0.18064E-02  7133   0.371E-01
RMM:   2    -0.116374106772E+00    0.20208E-01   -0.71547E-03  4325   0.947E-02    0.189E-01
RMM:   3    -0.115346418401E+00    0.10277E-02   -0.12037E-03  4504   0.291E-02    0.951E-02
RMM:   4    -0.114786130594E+00    0.56029E-03   -0.35756E-04  4496   0.160E-02    0.298E-02
RMM:   5    -0.114683279273E+00    0.10285E-03   -0.42792E-05  4560   0.533E-03    0.984E-03
RMM:   6    -0.114679472961E+00    0.38063E-05   -0.13041E-05  4797   0.200E-03    0.442E-03
 Linear response progress:
  Degree of freedom:  69/125
       N       E                     dE             d eps       ncg     rms          rms(c)
RMM:   1    -0.138196980781E+00   -0.13820E+00    0.23413E-02  7115   0.377E-01
RMM:   2    -0.116774104297E+00    0.21423E-01   -0.76032E-03  4327   0.955E-02    0.199E-01
RMM:   3    -0.115636254725E+00    0.11378E-02   -0.17109E-03  4502   0.329E-02    0.976E-02
RMM:   4    -0.115063416949E+00    0.57284E-03   -0.43212E-04  4522   0.162E-02    0.359E-02
RMM:   5    -0.114941060803E+00    0.12236E-03   -0.80173E-05  4521   0.623E-03    0.122E-02
RMM:   6    -0.114924039188E+00    0.17022E-04   -0.21563E-05  4810   0.230E-03    0.544E-03
RMM:   7    -0.114921390546E+00    0.26486E-05   -0.26602E-05  5079   0.142E-03    0.293E-03
 Linear response progress:
  Degree of freedom:  70/125
       N       E                     dE             d eps       ncg     rms          rms(c)
RMM:   1    -0.137142143035E+00   -0.13714E+00    0.13670E-02  7102   0.370E-01
RMM:   2    -0.117111544736E+00    0.20031E-01   -0.71099E-03  4318   0.935E-02    0.190E-01
RMM:   3    -0.115960149084E+00    0.11514E-02   -0.11402E-03  4491   0.293E-02    0.953E-02
RMM:   4    -0.115361102337E+00    0.59905E-03   -0.29882E-04  4480   0.159E-02    0.306E-02
RMM:   5    -0.115253037253E+00    0.10807E-03   -0.31823E-05  4540   0.544E-03    0.999E-03
RMM:   6    -0.115244014882E+00    0.90224E-05   -0.12434E-05  4782   0.203E-03    0.453E-03
 Linear response progress:
  Degree of freedom:  71/125
       N       E                     dE             d eps       ncg     rms          rms(c)
RMM:   1    -0.138123412335E+00   -0.13812E+00    0.17263E-02  7166   0.384E-01
RMM:   2    -0.117467312369E+00    0.20656E-01   -0.70417E-03  4306   0.987E-02    0.186E-01
RMM:   3    -0.116325791861E+00    0.11415E-02   -0.94012E-04  4478   0.282E-02    0.941E-02
RMM:   4    -0.115703919988E+00    0.62187E-03   -0.26737E-04  4495   0.158E-02    0.264E-02
RMM:   5    -0.115584701923E+00    0.11922E-03   -0.16112E-05  4655   0.429E-03    0.651E-03
RMM:   6    -0.115598373584E+00   -0.13672E-04   -0.96921E-06  5107   0.144E-03    0.141E-03
RMM:   7    -0.115603690486E+00   -0.53169E-05   -0.11357E-05  5890   0.696E-04    0.582E-04
 Linear response progress:
  Degree of freedom:  72/125
       N       E                     dE             d eps       ncg     rms          rms(c)
RMM:   1    -0.137713506817E+00   -0.13771E+00    0.25909E-02  7120   0.379E-01
RMM:   2    -0.116855996465E+00    0.20858E-01   -0.73099E-03  4286   0.937E-02    0.188E-01
RMM:   3    -0.115719627367E+00    0.11364E-02   -0.11113E-03  4458   0.283E-02    0.951E-02
RMM:   4    -0.115149911098E+00    0.56972E-03   -0.33342E-04  4445   0.155E-02    0.273E-02
RMM:   5    -0.115040854519E+00    0.10906E-03   -0.37014E-05  4620   0.440E-03    0.660E-03
RMM:   6    -0.115054880235E+00   -0.14026E-04   -0.23890E-05  4947   0.143E-03    0.140E-03
RMM:   7    -0.115056432187E+00   -0.15520E-05   -0.10508E-05  5599   0.630E-04    0.643E-04
 Linear response progress:
  Degree of freedom:  73/125
       N       E                     dE             d eps       ncg     rms          rms(c)
RMM:   1    -0.137259116872E+00   -0.13726E+00   -0.10141E-02  7064   0.323E-01
RMM:   2    -0.119199863531E+00    0.18059E-01   -0.74461E-03  4275   0.787E-02    0.248E-01
RMM:   3    -0.118853797745E+00    0.34607E-03   -0.33893E-03  4133   0.544E-02    0.110E-01
RMM:   4    -0.117861829926E+00    0.99197E-03   -0.59471E-04  4278   0.257E-02    0.544E-02
RMM:   5    -0.117699679753E+00    0.16215E-03   -0.15784E-04  4281   0.116E-02    0.168E-02
RMM:   6    -0.117635498556E+00    0.64181E-04   -0.17341E-05  4489   0.413E-03    0.695E-03
RMM:   7    -0.117637858668E+00   -0.23601E-05   -0.65663E-06  4649   0.169E-03    0.315E-03
 Linear response progress:
  Degree of freedom:  74/125
       N       E                     dE             d eps       ncg     rms          rms(c)
RMM:   1    -0.137411620457E+00   -0.13741E+00   -0.11539E-02  7176   0.325E-01
RMM:   2    -0.119920951382E+00    0.17491E-01   -0.71784E-03  4262   0.817E-02    0.243E-01
RMM:   3    -0.119486945583E+00    0.43401E-03   -0.31734E-03  4173   0.555E-02    0.107E-01
RMM:   4    -0.118489435151E+00    0.99751E-03   -0.54031E-04  4287   0.263E-02    0.534E-02
RMM:   5    -0.118308878874E+00    0.18056E-03   -0.92391E-05  4310   0.117E-02    0.170E-02
RMM:   6    -0.118250462121E+00    0.58417E-04   -0.10570E-05  4438   0.438E-03    0.718E-03
RMM:   7    -0.118254101097E+00   -0.36390E-05   -0.27883E-06  4700   0.176E-03    0.333E-03
 Linear response progress:
  Degree of freedom:  75/125
       N       E                     dE             d eps       ncg     rms          rms(c)
RMM:   1    -0.138061600336E+00   -0.13806E+00    0.19285E-02  7140   0.387E-01
RMM:   2    -0.117793849582E+00    0.20268E-01   -0.71790E-03  4334   0.100E-01    0.186E-01
RMM:   3    -0.116641704358E+00    0.11521E-02   -0.84539E-04  4535   0.283E-02    0.940E-02
RMM:   4    -0.116040600066E+00    0.60110E-03   -0.19285E-04  4525   0.159E-02    0.265E-02
RMM:   5    -0.115935928598E+00    0.10467E-03   -0.14405E-06  4644   0.431E-03    0.649E-03
RMM:   6    -0.115954379657E+00   -0.18451E-04   -0.82336E-06  5099   0.143E-03    0.118E-03
RMM:   7    -0.115960389291E+00   -0.60096E-05   -0.10875E-05  6061   0.624E-04    0.415E-04
 Linear response progress:
  Degree of freedom:  76/125
       N       E                     dE             d eps       ncg     rms          rms(c)
RMM:   1    -0.137840763903E+00   -0.13784E+00    0.22145E-02  7115   0.388E-01
RMM:   2    -0.117118164591E+00    0.20723E-01   -0.73448E-03  4322   0.100E-01    0.186E-01
RMM:   3    -0.116023897682E+00    0.10943E-02   -0.10043E-03  4527   0.285E-02    0.941E-02
RMM:   4    -0.115454343959E+00    0.56955E-03   -0.28931E-04  4520   0.160E-02    0.266E-02
RMM:   5    -0.115344609471E+00    0.10973E-03   -0.11802E-05  4609   0.433E-03    0.649E-03
RMM:   6    -0.115358031967E+00   -0.13422E-04   -0.51562E-06  5093   0.142E-03    0.118E-03
RMM:   7    -0.115363485640E+00   -0.54537E-05   -0.93255E-06  6061   0.606E-04    0.417E-04
 Linear response progress:
  Degree of freedom:  77/125
       N       E                     dE             d eps       ncg     rms          rms(c)
RMM:   1    -0.138309125104E+00   -0.13831E+00    0.16885E-02  7114   0.389E-01
RMM:   2    -0.117226018568E+00    0.21083E-01   -0.74809E-03  4329   0.101E-01    0.186E-01
RMM:   3    -0.116122945525E+00    0.11031E-02   -0.10019E-03  4535   0.285E-02    0.940E-02
RMM:   4    -0.115549350951E+00    0.57359E-03   -0.29154E-04  4537   0.160E-02    0.266E-02
RMM:   5    -0.115440834641E+00    0.10852E-03   -0.27609E-05  4654   0.434E-03    0.650E-03
RMM:   6    -0.115453215862E+00   -0.12381E-04   -0.27438E-05  5070   0.144E-03    0.120E-03
RMM:   7    -0.115454525324E+00   -0.13095E-05    0.80502E-06  6096   0.636E-04    0.424E-04
 Linear response progress:
  Degree of freedom:  78/125
       N       E                     dE             d eps       ncg     rms          rms(c)
RMM:   1    -0.137023418154E+00   -0.13702E+00    0.28189E-02  7179   0.366E-01
RMM:   2    -0.117844529629E+00    0.19179E-01   -0.65187E-03  4330   0.965E-02    0.185E-01
RMM:   3    -0.116676523178E+00    0.11680E-02   -0.79577E-04  4516   0.281E-02    0.939E-02
RMM:   4    -0.116046213273E+00    0.63031E-03   -0.19712E-04  4516   0.156E-02    0.266E-02
RMM:   5    -0.115942983440E+00    0.10323E-03   -0.86434E-06  4629   0.426E-03    0.655E-03
RMM:   6    -0.115961908687E+00   -0.18925E-04   -0.82503E-06  5059   0.144E-03    0.125E-03
RMM:   7    -0.115966499967E+00   -0.45913E-05   -0.21532E-06  5984   0.640E-04    0.463E-04
 Linear response progress:
  Degree of freedom:  79/125
       N       E                     dE             d eps       ncg     rms          rms(c)
RMM:   1    -0.136839201910E+00   -0.13684E+00    0.31002E-02  7029   0.358E-01
RMM:   2    -0.117937685309E+00    0.18902E-01   -0.66881E-03  4336   0.915E-02    0.186E-01
RMM:   3    -0.116645967807E+00    0.12917E-02   -0.89151E-04  4483   0.278E-02    0.941E-02
RMM:   4    -0.116001383081E+00    0.64458E-03   -0.22151E-04  4493   0.153E-02    0.269E-02
RMM:   5    -0.115899265796E+00    0.10212E-03   -0.17199E-06  4641   0.430E-03    0.654E-03
RMM:   6    -0.115922248352E+00   -0.22983E-04   -0.44839E-05  4969   0.145E-03    0.120E-03
RMM:   7    -0.115925365581E+00   -0.31172E-05   -0.31927E-05  5779   0.576E-04    0.438E-04
 Linear response progress:
  Degree of freedom:  80/125
       N       E                     dE             d eps       ncg     rms          rms(c)
RMM:   1    -0.137826047247E+00   -0.13783E+00    0.17133E-02  7131   0.379E-01
RMM:   2    -0.116354954960E+00    0.21471E-01   -0.73455E-03  4341   0.970E-02    0.185E-01
RMM:   3    -0.115356355691E+00    0.99860E-03   -0.11050E-03  4526   0.280E-02    0.937E-02
RMM:   4    -0.114834304701E+00    0.52205E-03   -0.36497E-04  4548   0.157E-02    0.265E-02
RMM:   5    -0.114723366776E+00    0.11094E-03   -0.45205E-05  4661   0.427E-03    0.657E-03
RMM:   6    -0.114731994860E+00   -0.86281E-05   -0.48281E-05  5155   0.145E-03    0.162E-03
 Linear response progress:
  Degree of freedom:  81/125
       N       E                     dE             d eps       ncg     rms          rms(c)
RMM:   1    -0.137113255650E+00   -0.13711E+00    0.24779E-02  7091   0.375E-01
RMM:   2    -0.116609456949E+00    0.20504E-01   -0.75852E-03  4332   0.930E-02    0.185E-01
RMM:   3    -0.115573466136E+00    0.10360E-02   -0.10713E-03  4516   0.277E-02    0.938E-02
RMM:   4    -0.115041426100E+00    0.53204E-03   -0.31220E-04  4471   0.155E-02    0.266E-02
RMM:   5    -0.114932824028E+00    0.10860E-03   -0.37793E-05  4642   0.429E-03    0.650E-03
RMM:   6    -0.114942823025E+00   -0.99990E-05   -0.30629E-05  5033   0.143E-03    0.135E-03
 Linear response progress:
  Degree of freedom:  82/125
       N       E                     dE             d eps       ncg     rms          rms(c)
RMM:   1    -0.137646648502E+00   -0.13765E+00    0.22143E-02  7147   0.380E-01
RMM:   2    -0.117126836420E+00    0.20520E-01   -0.70206E-03  4322   0.979E-02    0.185E-01
RMM:   3    -0.116027499451E+00    0.10993E-02   -0.97273E-04  4529   0.280E-02    0.938E-02
RMM:   4    -0.115423653775E+00    0.60385E-03   -0.29286E-04  4529   0.157E-02    0.265E-02
RMM:   5    -0.115308797610E+00    0.11486E-03   -0.26290E-05  4667   0.427E-03    0.650E-03
RMM:   6    -0.115323946196E+00   -0.15149E-04   -0.14994E-05  5104   0.144E-03    0.120E-03
RMM:   7    -0.115329855394E+00   -0.59092E-05   -0.17237E-05  6164   0.670E-04    0.421E-04
 Linear response progress:
  Degree of freedom:  83/125
       N       E                     dE             d eps       ncg     rms          rms(c)
RMM:   1    -0.137499543739E+00   -0.13750E+00    0.22645E-02  7120   0.376E-01
RMM:   2    -0.116483637669E+00    0.21016E-01   -0.74103E-03  4326   0.935E-02    0.185E-01
RMM:   3    -0.115456647070E+00    0.10270E-02   -0.10447E-03  4517   0.276E-02    0.938E-02
RMM:   4    -0.114919612916E+00    0.53703E-03   -0.31439E-04  4504   0.154E-02    0.265E-02
RMM:   5    -0.114814098598E+00    0.10551E-03   -0.25380E-05  4649   0.424E-03    0.648E-03
RMM:   6    -0.114825672365E+00   -0.11574E-04   -0.25679E-06  4958   0.140E-03    0.119E-03
RMM:   7    -0.114830140718E+00   -0.44684E-05   -0.46328E-06  5805   0.569E-04    0.423E-04
 Linear response progress:
  Degree of freedom:  84/125
       N       E                     dE             d eps       ncg     rms          rms(c)
RMM:   1    -0.137845762169E+00   -0.13785E+00    0.22050E-02  7145   0.385E-01
RMM:   2    -0.116964185508E+00    0.20882E-01   -0.79883E-03  4336   0.996E-02    0.186E-01
RMM:   3    -0.115858790373E+00    0.11054E-02   -0.11308E-03  4528   0.284E-02    0.941E-02
RMM:   4    -0.115292323293E+00    0.56647E-03   -0.34136E-04  4524   0.159E-02    0.266E-02
RMM:   5    -0.115172088690E+00    0.12023E-03   -0.35416E-05  4653   0.430E-03    0.651E-03
RMM:   6    -0.115180380890E+00   -0.82922E-05   -0.14574E-05  5081   0.144E-03    0.120E-03
 Linear response progress:
  Degree of freedom:  85/125
       N       E                     dE             d eps       ncg     rms          rms(c)
RMM:   1    -0.137860373408E+00   -0.13786E+00    0.20907E-02  7090   0.382E-01
RMM:   2    -0.116912657069E+00    0.20948E-01   -0.71609E-03  4327   0.947E-02    0.185E-01
RMM:   3    -0.115824727475E+00    0.10879E-02   -0.11052E-03  4502   0.278E-02    0.940E-02
RMM:   4    -0.115240557941E+00    0.58417E-03   -0.37331E-04  4504   0.156E-02    0.265E-02
RMM:   5    -0.115125879106E+00    0.11468E-03   -0.53444E-05  4652   0.430E-03    0.650E-03
RMM:   6    -0.115142276317E+00   -0.16397E-04   -0.55852E-05  4975   0.145E-03    0.115E-03
RMM:   7    -0.115146920149E+00   -0.46438E-05   -0.61410E-05  5789   0.586E-04    0.414E-04
 Linear response progress:
  Degree of freedom:  86/125
       N       E                     dE             d eps       ncg     rms          rms(c)
RMM:   1    -0.138113494569E+00   -0.13811E+00    0.19053E-02  7192   0.383E-01
RMM:   2    -0.117460300618E+00    0.20653E-01   -0.72576E-03  4338   0.989E-02    0.186E-01
RMM:   3    -0.116237174985E+00    0.12231E-02   -0.97939E-04  4542   0.284E-02    0.942E-02
RMM:   4    -0.115604227571E+00    0.63295E-03   -0.27665E-04  4550   0.159E-02    0.267E-02
RMM:   5    -0.115494711693E+00    0.10952E-03   -0.20683E-05  4645   0.432E-03    0.651E-03
RMM:   6    -0.115512199396E+00   -0.17488E-04   -0.10319E-05  5079   0.141E-03    0.122E-03
RMM:   7    -0.115517884384E+00   -0.56850E-05   -0.42250E-06  6077   0.637E-04    0.429E-04
 Linear response progress:
  Degree of freedom:  87/125
       N       E                     dE             d eps       ncg     rms          rms(c)
RMM:   1    -0.137645105118E+00   -0.13765E+00    0.19665E-02  7039   0.376E-01
RMM:   2    -0.118092777478E+00    0.19552E-01   -0.68129E-03  4330   0.938E-02    0.185E-01
RMM:   3    -0.116849178070E+00    0.12436E-02   -0.85232E-04  4532   0.277E-02    0.937E-02
RMM:   4    -0.116183284414E+00    0.66589E-03   -0.21997E-04  4510   0.156E-02    0.262E-02
RMM:   5    -0.116079029830E+00    0.10425E-03   -0.39746E-05  4672   0.430E-03    0.647E-03
RMM:   6    -0.116102938506E+00   -0.23909E-04   -0.79451E-05  5031   0.151E-03    0.113E-03
RMM:   7    -0.116101341243E+00    0.15973E-05   -0.23228E-05  5830   0.653E-04    0.417E-04
 Linear response progress:
  Degree of freedom:  88/125
       N       E                     dE             d eps       ncg     rms          rms(c)
RMM:   1    -0.138283852358E+00   -0.13828E+00    0.19401E-02  7187   0.384E-01
RMM:   2    -0.118097033369E+00    0.20187E-01   -0.71100E-03  4332   0.994E-02    0.186E-01
RMM:   3    -0.116827952857E+00    0.12691E-02   -0.86066E-04  4528   0.284E-02    0.943E-02
RMM:   4    -0.116182330788E+00    0.64562E-03   -0.19991E-04  4520   0.159E-02    0.266E-02
RMM:   5    -0.116086416478E+00    0.95914E-04    0.20887E-06  4643   0.431E-03    0.651E-03
RMM:   6    -0.116104713200E+00   -0.18297E-04    0.34110E-06  5133   0.143E-03    0.120E-03
RMM:   7    -0.116112841429E+00   -0.81282E-05   -0.17412E-05  6183   0.648E-04    0.412E-04
 Linear response progress:
  Degree of freedom:  89/125
       N       E                     dE             d eps       ncg     rms          rms(c)
RMM:   1    -0.138144836887E+00   -0.13814E+00    0.19256E-02  7081   0.379E-01
RMM:   2    -0.116863304529E+00    0.21282E-01   -0.75960E-03  4339   0.943E-02    0.186E-01
RMM:   3    -0.115828961142E+00    0.10343E-02   -0.11556E-03  4523   0.279E-02    0.943E-02
RMM:   4    -0.115285223309E+00    0.54374E-03   -0.37351E-04  4501   0.156E-02    0.267E-02
RMM:   5    -0.115170343880E+00    0.11488E-03   -0.50368E-05  4678   0.430E-03    0.653E-03
RMM:   6    -0.115180586604E+00   -0.10243E-04   -0.16033E-05  5036   0.144E-03    0.117E-03
RMM:   7    -0.115185364886E+00   -0.47783E-05   -0.21690E-05  5847   0.575E-04    0.406E-04
 Linear response progress:
  Degree of freedom:  90/125
       N       E                     dE             d eps       ncg     rms          rms(c)
RMM:   1    -0.138735738681E+00   -0.13874E+00    0.23052E-02  7016   0.360E-01
RMM:   2    -0.118149480495E+00    0.20586E-01   -0.73873E-03  4332   0.878E-02    0.204E-01
RMM:   3    -0.117025489631E+00    0.11240E-02   -0.15627E-03  4465   0.329E-02    0.985E-02
RMM:   4    -0.116434647759E+00    0.59084E-03   -0.26580E-04  4513   0.158E-02    0.369E-02
RMM:   5    -0.116255721998E+00    0.17893E-03   -0.29405E-05  4508   0.626E-03    0.126E-02
RMM:   6    -0.116245577807E+00    0.10144E-04   -0.40876E-06  4723   0.226E-03    0.559E-03
RMM:   7    -0.116251101420E+00   -0.55236E-05   -0.58963E-06  4907   0.138E-03    0.303E-03
 Linear response progress:
  Degree of freedom:  91/125
       N       E                     dE             d eps       ncg     rms          rms(c)
RMM:   1    -0.137571047128E+00   -0.13757E+00    0.16379E-02  7103   0.359E-01
RMM:   2    -0.117282639747E+00    0.20288E-01   -0.68932E-03  4314   0.906E-02    0.192E-01
RMM:   3    -0.116105046114E+00    0.11776E-02   -0.11658E-03  4488   0.287E-02    0.969E-02
RMM:   4    -0.115483248476E+00    0.62180E-03   -0.32354E-04  4489   0.157E-02    0.303E-02
RMM:   5    -0.115370274702E+00    0.11297E-03   -0.32303E-05  4537   0.527E-03    0.981E-03
RMM:   6    -0.115370409325E+00   -0.13462E-06   -0.10162E-05  4762   0.198E-03    0.448E-03
 Linear response progress:
  Degree of freedom:  92/125
       N       E                     dE             d eps       ncg     rms          rms(c)
RMM:   1    -0.138349329907E+00   -0.13835E+00    0.15639E-02  7158   0.390E-01
RMM:   2    -0.116776071046E+00    0.21573E-01   -0.72684E-03  4330   0.101E-01    0.186E-01
RMM:   3    -0.115647564071E+00    0.11285E-02   -0.10953E-03  4544   0.286E-02    0.940E-02
RMM:   4    -0.115076962690E+00    0.57060E-03   -0.35720E-04  4521   0.162E-02    0.265E-02
RMM:   5    -0.114982271809E+00    0.94691E-04   -0.45126E-05  4689   0.443E-03    0.649E-03
RMM:   6    -0.114997357972E+00   -0.15086E-04   -0.44259E-05  5221   0.155E-03    0.122E-03
RMM:   7    -0.115002936424E+00   -0.55785E-05   -0.60250E-05  6222   0.785E-04    0.446E-04
 Linear response progress:
  Degree of freedom:  93/125
       N       E                     dE             d eps       ncg     rms          rms(c)
RMM:   1    -0.138309586548E+00   -0.13831E+00    0.15899E-02  7104   0.391E-01
RMM:   2    -0.116696066371E+00    0.21614E-01   -0.72869E-03  4343   0.100E-01    0.186E-01
RMM:   3    -0.115648798788E+00    0.10473E-02   -0.10971E-03  4525   0.286E-02    0.940E-02
RMM:   4    -0.115095407954E+00    0.55339E-03   -0.35942E-04  4536   0.161E-02    0.266E-02
RMM:   5    -0.114986275074E+00    0.10913E-03   -0.40790E-05  4653   0.436E-03    0.650E-03
RMM:   6    -0.114997128893E+00   -0.10854E-04   -0.34709E-05  5155   0.145E-03    0.127E-03
RMM:   7    -0.115001879342E+00   -0.47504E-05   -0.33897E-05  6109   0.694E-04    0.485E-04
 Linear response progress:
  Degree of freedom:  94/125
       N       E                     dE             d eps       ncg     rms          rms(c)
RMM:   1    -0.138253371046E+00   -0.13825E+00    0.16486E-02  7142   0.390E-01
RMM:   2    -0.118372953799E+00    0.19880E-01   -0.70536E-03  4334   0.101E-01    0.186E-01
RMM:   3    -0.116910024436E+00    0.14629E-02   -0.81189E-04  4527   0.286E-02    0.940E-02
RMM:   4    -0.116214969419E+00    0.69506E-03   -0.17755E-04  4518   0.161E-02    0.266E-02
RMM:   5    -0.116136169064E+00    0.78800E-04    0.20576E-06  4670   0.440E-03    0.649E-03
RMM:   6    -0.116155560572E+00   -0.19392E-04   -0.19379E-05  5158   0.151E-03    0.121E-03
RMM:   7    -0.116163030146E+00   -0.74696E-05   -0.34997E-05  6123   0.729E-04    0.445E-04
 Linear response progress:
  Degree of freedom:  95/125
       N       E                     dE             d eps       ncg     rms          rms(c)
RMM:   1    -0.138098346315E+00   -0.13810E+00    0.16070E-02  7119   0.391E-01
RMM:   2    -0.117345660342E+00    0.20753E-01   -0.71758E-03  4324   0.101E-01    0.185E-01
RMM:   3    -0.116155937333E+00    0.11897E-02   -0.96896E-04  4517   0.285E-02    0.939E-02
RMM:   4    -0.115546238542E+00    0.60970E-03   -0.27490E-04  4506   0.161E-02    0.265E-02
RMM:   5    -0.115443044667E+00    0.10319E-03   -0.19348E-05  4641   0.436E-03    0.648E-03
RMM:   6    -0.115456303438E+00   -0.13259E-04   -0.90225E-06  5133   0.143E-03    0.124E-03
RMM:   7    -0.115461131798E+00   -0.48284E-05   -0.31042E-06  6122   0.657E-04    0.465E-04
 Linear response progress:
  Degree of freedom:  96/125
       N       E                     dE             d eps       ncg     rms          rms(c)
RMM:   1    -0.138039622670E+00   -0.13804E+00    0.15994E-02  7124   0.391E-01
RMM:   2    -0.117127796072E+00    0.20912E-01   -0.74514E-03  4328   0.100E-01    0.185E-01
RMM:   3    -0.116053294560E+00    0.10745E-02   -0.10194E-03  4533   0.284E-02    0.937E-02
RMM:   4    -0.115490585816E+00    0.56271E-03   -0.29670E-04  4516   0.160E-02    0.264E-02
RMM:   5    -0.115378381560E+00    0.11220E-03   -0.26568E-05  4638   0.432E-03    0.649E-03
RMM:   6    -0.115389447142E+00   -0.11066E-04   -0.13666E-05  5150   0.142E-03    0.137E-03
RMM:   7    -0.115393680466E+00   -0.42333E-05   -0.19225E-06  5948   0.687E-04    0.546E-04
 Linear response progress:
  Degree of freedom:  97/125
       N       E                     dE             d eps       ncg     rms          rms(c)
RMM:   1    -0.137913899278E+00   -0.13791E+00    0.16703E-02  7104   0.390E-01
RMM:   2    -0.117637950646E+00    0.20276E-01   -0.70558E-03  4324   0.996E-02    0.185E-01
RMM:   3    -0.116411148018E+00    0.12268E-02   -0.89539E-04  4509   0.284E-02    0.937E-02
RMM:   4    -0.115777034308E+00    0.63411E-03   -0.23243E-04  4509   0.160E-02    0.264E-02
RMM:   5    -0.115675589266E+00    0.10145E-03   -0.73325E-06  4662   0.434E-03    0.648E-03
RMM:   6    -0.115693671163E+00   -0.18082E-04   -0.12907E-05  5157   0.146E-03    0.130E-03
RMM:   7    -0.115698852940E+00   -0.51818E-05   -0.60739E-06  6076   0.719E-04    0.504E-04
 Linear response progress:
  Degree of freedom:  98/125
       N       E                     dE             d eps       ncg     rms          rms(c)
RMM:   1    -0.137903118783E+00   -0.13790E+00    0.22242E-02  7168   0.375E-01
RMM:   2    -0.117066058696E+00    0.20837E-01   -0.70189E-03  4325   0.981E-02    0.187E-01
RMM:   3    -0.115992800195E+00    0.10733E-02   -0.10547E-03  4501   0.286E-02    0.947E-02
RMM:   4    -0.115413388546E+00    0.57941E-03   -0.33437E-04  4516   0.160E-02    0.268E-02
RMM:   5    -0.115291431306E+00    0.12196E-03   -0.36070E-05  4641   0.439E-03    0.668E-03
RMM:   6    -0.115300647770E+00   -0.92165E-05   -0.34142E-05  5101   0.156E-03    0.211E-03
 Linear response progress:
  Degree of freedom:  99/125
       N       E                     dE             d eps       ncg     rms          rms(c)
RMM:   1    -0.137653258863E+00   -0.13765E+00    0.24468E-02  7010   0.365E-01
RMM:   2    -0.118084618419E+00    0.19569E-01   -0.66773E-03  4328   0.922E-02    0.187E-01
RMM:   3    -0.116799462305E+00    0.12852E-02   -0.78859E-04  4514   0.284E-02    0.946E-02
RMM:   4    -0.116177733234E+00    0.62173E-03   -0.13351E-04  4484   0.157E-02    0.271E-02
RMM:   5    -0.116086902179E+00    0.90831E-04    0.26178E-05  4663   0.446E-03    0.681E-03
RMM:   6    -0.116096975782E+00   -0.10074E-04    0.34926E-05  4991   0.149E-03    0.252E-03
RMM:   7    -0.116103345846E+00   -0.63701E-05    0.29104E-05  5329   0.904E-04    0.818E-04
 Linear response progress:
  Degree of freedom: 100/125
       N       E                     dE             d eps       ncg     rms          rms(c)
RMM:   1    -0.138126185147E+00   -0.13813E+00    0.14230E-02  7208   0.368E-01
RMM:   2    -0.117453234780E+00    0.20673E-01   -0.71130E-03  4338   0.964E-02    0.186E-01
RMM:   3    -0.116308076180E+00    0.11452E-02   -0.96477E-04  4526   0.283E-02    0.941E-02
RMM:   4    -0.115689494547E+00    0.61858E-03   -0.27540E-04  4501   0.160E-02    0.270E-02
RMM:   5    -0.115587455435E+00    0.10204E-03   -0.17204E-05  4577   0.516E-03    0.848E-03
RMM:   6    -0.115588465616E+00   -0.10102E-05   -0.14739E-05  4814   0.243E-03    0.392E-03
 Linear response progress:
  Degree of freedom: 101/125
       N       E                     dE             d eps       ncg     rms          rms(c)
RMM:   1    -0.136914774495E+00   -0.13691E+00    0.24588E-02  6997   0.357E-01
RMM:   2    -0.116341471379E+00    0.20573E-01   -0.74755E-03  4326   0.897E-02    0.186E-01
RMM:   3    -0.115365440389E+00    0.97603E-03   -0.13454E-03  4514   0.285E-02    0.940E-02
RMM:   4    -0.114832159156E+00    0.53328E-03   -0.49220E-04  4521   0.159E-02    0.278E-02
RMM:   5    -0.114722521035E+00    0.10964E-03   -0.13923E-04  4555   0.528E-03    0.915E-03
RMM:   6    -0.114720349268E+00    0.21718E-05   -0.16783E-04  4745   0.242E-03    0.410E-03
RMM:   7    -0.114719231993E+00    0.11173E-05   -0.92822E-05  5022   0.120E-03    0.151E-03
 Linear response progress:
  Degree of freedom: 102/125
       N       E                     dE             d eps       ncg     rms          rms(c)
RMM:   1    -0.138246072365E+00   -0.13825E+00    0.16407E-02  7096   0.386E-01
RMM:   2    -0.117498084503E+00    0.20748E-01   -0.69150E-03  4326   0.995E-02    0.186E-01
RMM:   3    -0.116253672217E+00    0.12444E-02   -0.88730E-04  4513   0.284E-02    0.941E-02
RMM:   4    -0.115628188058E+00    0.62548E-03   -0.22947E-04  4507   0.160E-02    0.267E-02
RMM:   5    -0.115524547857E+00    0.10364E-03   -0.10518E-05  4669   0.441E-03    0.649E-03
RMM:   6    -0.115537271010E+00   -0.12723E-04   -0.17963E-05  5194   0.153E-03    0.121E-03
RMM:   7    -0.115542200977E+00   -0.49300E-05   -0.10248E-05  6178   0.750E-04    0.456E-04
 Linear response progress:
  Degree of freedom: 103/125
       N       E                     dE             d eps       ncg     rms          rms(c)
RMM:   1    -0.137935663449E+00   -0.13794E+00    0.18078E-02  7083   0.383E-01
RMM:   2    -0.116438454715E+00    0.21497E-01   -0.72038E-03  4311   0.984E-02    0.185E-01
RMM:   3    -0.115458757801E+00    0.97970E-03   -0.11229E-03  4533   0.283E-02    0.939E-02
RMM:   4    -0.114928503591E+00    0.53025E-03   -0.37364E-04  4515   0.159E-02    0.265E-02
RMM:   5    -0.114812474279E+00    0.11603E-03   -0.49543E-05  4711   0.438E-03    0.648E-03
RMM:   6    -0.114822658856E+00   -0.10185E-04   -0.29295E-05  5135   0.151E-03    0.123E-03
RMM:   7    -0.114828417857E+00   -0.57590E-05   -0.42635E-05  6054   0.729E-04    0.479E-04
 Linear response progress:
  Degree of freedom: 104/125
       N       E                     dE             d eps       ncg     rms          rms(c)
RMM:   1    -0.137731007859E+00   -0.13773E+00    0.20768E-02  7110   0.385E-01
RMM:   2    -0.117070704327E+00    0.20660E-01   -0.70721E-03  4332   0.994E-02    0.185E-01
RMM:   3    -0.115936711847E+00    0.11340E-02   -0.10249E-03  4528   0.284E-02    0.939E-02
RMM:   4    -0.115322917570E+00    0.61379E-03   -0.32079E-04  4519   0.160E-02    0.265E-02
RMM:   5    -0.115201832038E+00    0.12109E-03   -0.31482E-05  4667   0.436E-03    0.649E-03
RMM:   6    -0.115215344688E+00   -0.13513E-04   -0.26108E-05  5177   0.149E-03    0.122E-03
RMM:   7    -0.115222191275E+00   -0.68466E-05   -0.37803E-05  6202   0.723E-04    0.457E-04
 Linear response progress:
  Degree of freedom: 105/125
       N       E                     dE             d eps       ncg     rms          rms(c)
RMM:   1    -0.138092569495E+00   -0.13809E+00    0.16200E-02  7104   0.388E-01
RMM:   2    -0.116501978447E+00    0.21591E-01   -0.72150E-03  4315   0.997E-02    0.186E-01
RMM:   3    -0.115430062910E+00    0.10719E-02   -0.10794E-03  4510   0.285E-02    0.940E-02
RMM:   4    -0.114898469040E+00    0.53159E-03   -0.35424E-04  4508   0.160E-02    0.266E-02
RMM:   5    -0.114800921759E+00    0.97547E-04   -0.44628E-05  4676   0.440E-03    0.649E-03
RMM:   6    -0.114810508246E+00   -0.95865E-05   -0.34461E-05  5189   0.153E-03    0.136E-03
 Linear response progress:
  Degree of freedom: 106/125
       N       E                     dE             d eps       ncg     rms          rms(c)
RMM:   1    -0.138194063026E+00   -0.13819E+00    0.14686E-02  7066   0.387E-01
RMM:   2    -0.116484372304E+00    0.21710E-01   -0.72227E-03  4315   0.995E-02    0.185E-01
RMM:   3    -0.115493416507E+00    0.99096E-03   -0.11301E-03  4529   0.284E-02    0.939E-02
RMM:   4    -0.114957414705E+00    0.53600E-03   -0.38594E-04  4505   0.160E-02    0.265E-02
RMM:   5    -0.114841180565E+00    0.11623E-03   -0.46781E-05  4655   0.440E-03    0.652E-03
RMM:   6    -0.114851626629E+00   -0.10446E-04   -0.24231E-05  5096   0.155E-03    0.154E-03
RMM:   7    -0.114856859495E+00   -0.52329E-05   -0.33045E-05  5721   0.876E-04    0.650E-04
 Linear response progress:
  Degree of freedom: 107/125
       N       E                     dE             d eps       ncg     rms          rms(c)
RMM:   1    -0.137969934051E+00   -0.13797E+00    0.17391E-02  7135   0.389E-01
RMM:   2    -0.116922091845E+00    0.21048E-01   -0.70695E-03  4311   0.100E-01    0.185E-01
RMM:   3    -0.115838629862E+00    0.10835E-02   -0.10301E-03  4524   0.285E-02    0.939E-02
RMM:   4    -0.115281971007E+00    0.55666E-03   -0.31486E-04  4513   0.160E-02    0.265E-02
RMM:   5    -0.115184462093E+00    0.97509E-04   -0.32490E-05  4678   0.440E-03    0.651E-03
RMM:   6    -0.115198400244E+00   -0.13938E-04   -0.25141E-05  5095   0.155E-03    0.152E-03
RMM:   7    -0.115205803914E+00   -0.74037E-05   -0.56398E-05  5660   0.869E-04    0.645E-04
 Linear response progress:
  Degree of freedom: 108/125
       N       E                     dE             d eps       ncg     rms          rms(c)
RMM:   1    -0.137747117596E+00   -0.13775E+00    0.17160E-02  7076   0.372E-01
RMM:   2    -0.117807421408E+00    0.19940E-01   -0.68260E-03  4335   0.919E-02    0.185E-01
RMM:   3    -0.116511868407E+00    0.12956E-02   -0.78949E-04  4514   0.276E-02    0.940E-02
RMM:   4    -0.115868131803E+00    0.64374E-03   -0.15774E-04  4479   0.154E-02    0.266E-02
RMM:   5    -0.115773919262E+00    0.94213E-04    0.61931E-06  4624   0.426E-03    0.650E-03
RMM:   6    -0.115792592895E+00   -0.18674E-04    0.60554E-06  4987   0.139E-03    0.127E-03
RMM:   7    -0.115797078368E+00   -0.44855E-05    0.12991E-05  5742   0.599E-04    0.507E-04
 Linear response progress:
  Degree of freedom: 109/125
       N       E                     dE             d eps       ncg     rms          rms(c)
RMM:   1    -0.137589204294E+00   -0.13759E+00    0.18778E-02  7183   0.377E-01
RMM:   2    -0.117147160295E+00    0.20442E-01   -0.71757E-03  4328   0.964E-02    0.185E-01
RMM:   3    -0.116014180967E+00    0.11330E-02   -0.10480E-03  4516   0.279E-02    0.938E-02
RMM:   4    -0.115418709579E+00    0.59547E-03   -0.31790E-04  4531   0.157E-02    0.265E-02
RMM:   5    -0.115303970247E+00    0.11474E-03   -0.31129E-05  4663   0.430E-03    0.657E-03
RMM:   6    -0.115315940623E+00   -0.11970E-04   -0.15565E-05  5181   0.147E-03    0.165E-03
RMM:   7    -0.115320756267E+00   -0.48156E-05   -0.74076E-06  5914   0.782E-04    0.651E-04
 Linear response progress:
  Degree of freedom: 110/125
       N       E                     dE             d eps       ncg     rms          rms(c)
RMM:   1    -0.137908954076E+00   -0.13791E+00    0.91185E-03  7016   0.360E-01
RMM:   2    -0.117650190251E+00    0.20259E-01   -0.65951E-03  4303   0.880E-02    0.186E-01
RMM:   3    -0.116453551660E+00    0.11966E-02   -0.95082E-04  4483   0.272E-02    0.940E-02
RMM:   4    -0.115825899573E+00    0.62765E-03   -0.25919E-04  4481   0.151E-02    0.267E-02
RMM:   5    -0.115716643444E+00    0.10926E-03   -0.20394E-05  4602   0.426E-03    0.675E-03
RMM:   6    -0.115727270166E+00   -0.10627E-04   -0.87585E-06  4887   0.151E-03    0.268E-03
RMM:   7    -0.115735594198E+00   -0.83240E-05   -0.11066E-05  5137   0.914E-04    0.797E-04
 Linear response progress:
  Degree of freedom: 111/125
       N       E                     dE             d eps       ncg     rms          rms(c)
RMM:   1    -0.137484381846E+00   -0.13748E+00    0.16522E-02  7138   0.367E-01
RMM:   2    -0.116597154383E+00    0.20887E-01   -0.73358E-03  4296   0.939E-02    0.185E-01
RMM:   3    -0.115555403629E+00    0.10418E-02   -0.11038E-03  4505   0.274E-02    0.942E-02
RMM:   4    -0.115000159920E+00    0.55524E-03   -0.36484E-04  4518   0.156E-02    0.263E-02
RMM:   5    -0.114887694532E+00    0.11247E-03   -0.34372E-05  4608   0.429E-03    0.707E-03
RMM:   6    -0.114890240798E+00   -0.25463E-05   -0.13189E-05  4835   0.166E-03    0.306E-03
 Linear response progress:
  Degree of freedom: 112/125
       N       E                     dE             d eps       ncg     rms          rms(c)
RMM:   1    -0.137375934763E+00   -0.13738E+00    0.21323E-02  7019   0.376E-01
RMM:   2    -0.117788225934E+00    0.19588E-01   -0.65467E-03  4300   0.916E-02    0.187E-01
RMM:   3    -0.116508741182E+00    0.12795E-02   -0.84196E-04  4448   0.278E-02    0.943E-02
RMM:   4    -0.115863753740E+00    0.64499E-03   -0.18870E-04  4442   0.154E-02    0.269E-02
RMM:   5    -0.115767686244E+00    0.96067E-04   -0.95593E-07  4638   0.433E-03    0.656E-03
RMM:   6    -0.115787403992E+00   -0.19718E-04   -0.40570E-06  4977   0.141E-03    0.170E-03
RMM:   7    -0.115792851553E+00   -0.54476E-05   -0.30318E-06  5506   0.705E-04    0.686E-04
 Linear response progress:
  Degree of freedom: 113/125
       N       E                     dE             d eps       ncg     rms          rms(c)
RMM:   1    -0.137336252012E+00   -0.13734E+00    0.22070E-02  7153   0.382E-01
RMM:   2    -0.117283060688E+00    0.20053E-01   -0.70740E-03  4295   0.971E-02    0.185E-01
RMM:   3    -0.116170524193E+00    0.11125E-02   -0.97513E-04  4497   0.280E-02    0.939E-02
RMM:   4    -0.115605499291E+00    0.56502E-03   -0.27258E-04  4508   0.158E-02    0.264E-02
RMM:   5    -0.115508596493E+00    0.96903E-04   -0.18277E-05  4662   0.431E-03    0.651E-03
RMM:   6    -0.115520292424E+00   -0.11696E-04   -0.11030E-05  5174   0.148E-03    0.156E-03
RMM:   7    -0.115524856705E+00   -0.45643E-05   -0.80065E-06  5930   0.782E-04    0.632E-04
 Linear response progress:
  Degree of freedom: 114/125
       N       E                     dE             d eps       ncg     rms          rms(c)
RMM:   1    -0.137786886654E+00   -0.13779E+00    0.15468E-02  7029   0.370E-01
RMM:   2    -0.117331718843E+00    0.20455E-01   -0.68435E-03  4298   0.902E-02    0.187E-01
RMM:   3    -0.116193782864E+00    0.11379E-02   -0.10696E-03  4514   0.279E-02    0.943E-02
RMM:   4    -0.115598260945E+00    0.59552E-03   -0.31346E-04  4493   0.153E-02    0.271E-02
RMM:   5    -0.115484308957E+00    0.11395E-03   -0.24778E-05  4603   0.436E-03    0.681E-03
RMM:   6    -0.115494982496E+00   -0.10674E-04   -0.73121E-06  4818   0.146E-03    0.264E-03
RMM:   7    -0.115503043999E+00   -0.80615E-05   -0.71308E-06  5051   0.837E-04    0.839E-04
 Linear response progress:
  Degree of freedom: 115/125
       N       E                     dE             d eps       ncg     rms          rms(c)
RMM:   1    -0.137395814088E+00   -0.13740E+00    0.18004E-02  7105   0.375E-01
RMM:   2    -0.117229390480E+00    0.20166E-01   -0.70376E-03  4334   0.958E-02    0.185E-01
RMM:   3    -0.116107774611E+00    0.11216E-02   -0.96204E-04  4529   0.279E-02    0.942E-02
RMM:   4    -0.115511789509E+00    0.59599E-03   -0.27028E-04  4517   0.158E-02    0.263E-02
RMM:   5    -0.115416261354E+00    0.95528E-04   -0.21574E-05  4635   0.437E-03    0.702E-03
RMM:   6    -0.115422868182E+00   -0.66068E-05   -0.46540E-08  4861   0.173E-03    0.295E-03
 Linear response progress:
  Degree of freedom: 116/125
       N       E                     dE             d eps       ncg     rms          rms(c)
RMM:   1    -0.137601544384E+00   -0.13760E+00    0.23842E-02  7206   0.358E-01
RMM:   2    -0.117210800708E+00    0.20391E-01   -0.69935E-03  4339   0.950E-02    0.186E-01
RMM:   3    -0.116086611840E+00    0.11242E-02   -0.97033E-04  4523   0.278E-02    0.941E-02
RMM:   4    -0.115487670678E+00    0.59894E-03   -0.28556E-04  4512   0.155E-02    0.265E-02
RMM:   5    -0.115376587906E+00    0.11108E-03   -0.22311E-05  4606   0.422E-03    0.652E-03
RMM:   6    -0.115390131363E+00   -0.13543E-04   -0.84443E-06  5060   0.141E-03    0.146E-03
RMM:   7    -0.115394581867E+00   -0.44505E-05   -0.40799E-06  5740   0.695E-04    0.631E-04
 Linear response progress:
  Degree of freedom: 117/125
       N       E                     dE             d eps       ncg     rms          rms(c)
RMM:   1    -0.136924042901E+00   -0.13692E+00    0.28985E-02  7023   0.351E-01
RMM:   2    -0.117244490736E+00    0.19680E-01   -0.69462E-03  4328   0.897E-02    0.186E-01
RMM:   3    -0.116104122049E+00    0.11404E-02   -0.10087E-03  4501   0.274E-02    0.941E-02
RMM:   4    -0.115507556018E+00    0.59657E-03   -0.28402E-04  4501   0.152E-02    0.267E-02
RMM:   5    -0.115401311990E+00    0.10624E-03   -0.22143E-05  4615   0.424E-03    0.655E-03
RMM:   6    -0.115417614986E+00   -0.16303E-04   -0.88243E-06  4953   0.140E-03    0.176E-03
RMM:   7    -0.115422000499E+00   -0.43855E-05   -0.16023E-05  5387   0.655E-04    0.690E-04
 Linear response progress:
  Degree of freedom: 118/125
       N       E                     dE             d eps       ncg     rms          rms(c)
RMM:   1    -0.137844524854E+00   -0.13784E+00    0.24476E-02  7216   0.353E-01
RMM:   2    -0.116129040336E+00    0.21715E-01   -0.74487E-03  4321   0.936E-02    0.187E-01
RMM:   3    -0.115227286569E+00    0.90175E-03   -0.12010E-03  4462   0.276E-02    0.946E-02
RMM:   4    -0.114728782313E+00    0.49850E-03   -0.43094E-04  4511   0.154E-02    0.266E-02
RMM:   5    -0.114610451361E+00    0.11833E-03   -0.62792E-05  4643   0.422E-03    0.654E-03
RMM:   6    -0.114621032729E+00   -0.10581E-04   -0.64965E-05  5086   0.145E-03    0.138E-03
RMM:   7    -0.114628966163E+00   -0.79334E-05   -0.10562E-04  5673   0.731E-04    0.608E-04
RMM:   8    -0.114621372742E+00    0.75934E-05   -0.21755E-05  6229   0.556E-04    0.232E-04
 Linear response progress:
  Degree of freedom: 119/125
       N       E                     dE             d eps       ncg     rms          rms(c)
RMM:   1    -0.137006091074E+00   -0.13701E+00    0.33296E-02  7078   0.342E-01
RMM:   2    -0.117654694043E+00    0.19351E-01   -0.71804E-03  4335   0.879E-02    0.187E-01
RMM:   3    -0.116440628852E+00    0.12141E-02   -0.93670E-04  4485   0.273E-02    0.945E-02
RMM:   4    -0.115841321329E+00    0.59931E-03   -0.22487E-04  4487   0.150E-02    0.269E-02
RMM:   5    -0.115742686441E+00    0.98635E-04   -0.66659E-06  4590   0.418E-03    0.655E-03
RMM:   6    -0.115757848524E+00   -0.15162E-04    0.19455E-06  4925   0.137E-03    0.149E-03
RMM:   7    -0.115759549699E+00   -0.17012E-05    0.24321E-05  5366   0.607E-04    0.611E-04
 Linear response progress:
  Degree of freedom: 120/125
       N       E                     dE             d eps       ncg     rms          rms(c)
RMM:   1    -0.137902087452E+00   -0.13790E+00    0.20420E-02  7181   0.376E-01
RMM:   2    -0.116959486575E+00    0.20943E-01   -0.70280E-03  4333   0.978E-02    0.186E-01
RMM:   3    -0.115877333515E+00    0.10822E-02   -0.98736E-04  4523   0.280E-02    0.940E-02
RMM:   4    -0.115304840767E+00    0.57249E-03   -0.29568E-04  4507   0.156E-02    0.266E-02
RMM:   5    -0.115201651479E+00    0.10319E-03   -0.27609E-05  4611   0.426E-03    0.648E-03
RMM:   6    -0.115216187181E+00   -0.14536E-04   -0.15352E-05  5095   0.141E-03    0.119E-03
RMM:   7    -0.115220583207E+00   -0.43960E-05   -0.13494E-05  6154   0.602E-04    0.418E-04
 Linear response progress:
  Degree of freedom: 121/125
       N       E                     dE             d eps       ncg     rms          rms(c)
RMM:   1    -0.137860653884E+00   -0.13786E+00    0.19109E-02  7109   0.369E-01
RMM:   2    -0.116741763995E+00    0.21119E-01   -0.67766E-03  4339   0.920E-02    0.185E-01
RMM:   3    -0.115724722742E+00    0.10170E-02   -0.10819E-03  4522   0.274E-02    0.939E-02
RMM:   4    -0.115157111465E+00    0.56761E-03   -0.35962E-04  4485   0.153E-02    0.265E-02
RMM:   5    -0.115038281227E+00    0.11883E-03   -0.45656E-05  4643   0.423E-03    0.650E-03
RMM:   6    -0.115052435684E+00   -0.14154E-04   -0.28449E-05  4892   0.137E-03    0.118E-03
RMM:   7    -0.115056541640E+00   -0.41060E-05   -0.26188E-05  5723   0.479E-04    0.408E-04
 Linear response progress:
  Degree of freedom: 122/125
       N       E                     dE             d eps       ncg     rms          rms(c)
RMM:   1    -0.136831728396E+00   -0.13683E+00    0.29905E-02  7190   0.334E-01
RMM:   2    -0.116743659452E+00    0.20088E-01   -0.70373E-03  4351   0.866E-02    0.185E-01
RMM:   3    -0.115707098991E+00    0.10366E-02   -0.10426E-03  4469   0.266E-02    0.940E-02
RMM:   4    -0.115166148658E+00    0.54095E-03   -0.31604E-04  4475   0.147E-02    0.266E-02
RMM:   5    -0.115063657035E+00    0.10249E-03   -0.25695E-05  4582   0.404E-03    0.652E-03
RMM:   6    -0.115076621543E+00   -0.12965E-04   -0.71045E-06  4837   0.129E-03    0.118E-03
RMM:   7    -0.115081165320E+00   -0.45438E-05   -0.77349E-06  5574   0.447E-04    0.429E-04
 Linear response progress:
  Degree of freedom: 123/125
       N       E                     dE             d eps       ncg     rms          rms(c)
RMM:   1    -0.136585938871E+00   -0.13659E+00    0.30260E-02  7202   0.333E-01
RMM:   2    -0.118293903362E+00    0.18292E-01   -0.57869E-03  4350   0.869E-02    0.185E-01
RMM:   3    -0.117066083001E+00    0.12278E-02   -0.66787E-04  4452   0.267E-02    0.939E-02
RMM:   4    -0.116396839718E+00    0.66924E-03   -0.13447E-04  4478   0.148E-02    0.266E-02
RMM:   5    -0.116292492340E+00    0.10435E-03    0.24484E-05  4600   0.409E-03    0.654E-03
RMM:   6    -0.116308349833E+00   -0.15857E-04    0.32294E-05  4920   0.138E-03    0.124E-03
RMM:   7    -0.116313398259E+00   -0.50484E-05    0.36552E-05  5609   0.569E-04    0.455E-04
 Linear response progress:
  Degree of freedom: 124/125
       N       E                     dE             d eps       ncg     rms          rms(c)
RMM:   1    -0.136985664439E+00   -0.13699E+00    0.29750E-02  7225   0.338E-01
RMM:   2    -0.117554137792E+00    0.19432E-01   -0.68502E-03  4336   0.883E-02    0.185E-01
RMM:   3    -0.116272229364E+00    0.12819E-02   -0.81774E-04  4484   0.269E-02    0.940E-02
RMM:   4    -0.115635822579E+00    0.63641E-03   -0.18139E-04  4491   0.149E-02    0.266E-02
RMM:   5    -0.115546746090E+00    0.89076E-04    0.56886E-06  4615   0.412E-03    0.651E-03
RMM:   6    -0.115564823279E+00   -0.18077E-04    0.12029E-05  4931   0.138E-03    0.117E-03
RMM:   7    -0.115570508562E+00   -0.56853E-05    0.65015E-06  5727   0.538E-04    0.428E-04
 Linear response progress:
  Degree of freedom: 125/125
       N       E                     dE             d eps       ncg     rms          rms(c)
RMM:   1    -0.137340803283E+00   -0.13734E+00    0.26584E-02  7270   0.328E-01
RMM:   2    -0.118728031126E+00    0.18613E-01   -0.71119E-03  4332   0.865E-02    0.186E-01
RMM:   3    -0.117357776798E+00    0.13703E-02   -0.79477E-04  4476   0.264E-02    0.941E-02
RMM:   4    -0.116669230804E+00    0.68855E-03   -0.15370E-04  4503   0.145E-02    0.267E-02
RMM:   5    -0.116571509834E+00    0.97721E-04    0.14571E-05  4653   0.406E-03    0.651E-03
RMM:   6    -0.116593537674E+00   -0.22028E-04    0.71937E-06  4908   0.136E-03    0.117E-03
RMM:   7    -0.116596715282E+00   -0.31776E-05    0.16215E-05  5566   0.491E-04    0.413E-04
 Linear response finished
