       N       E                     dE             d eps       ncg     rms          ort
SDA:   1    -0.240114289335E+04   -0.24011E+04   -0.76414E-01   648   0.382E+00 0.000E+00
DMP:   2    -0.240120757416E+04   -0.64681E-01   -0.63163E-01   648   0.178E+00 0.264E+00
DMP:   3    -0.240125503399E+04   -0.47460E-01   -0.26615E-01   648   0.510E-01 0.158E+00
DMP:   4    -0.240127264011E+04   -0.17606E-01   -0.79718E-02   648   0.180E-01 0.421E-01
DMP:   5    -0.240127760382E+04   -0.49637E-02   -0.42375E-02   648   0.165E-01 0.911E-02
DMP:   6    -0.240128092482E+04   -0.33210E-02   -0.38332E-02   648   0.131E-01 0.116E-01
DMP:   7    -0.240128406050E+04   -0.31357E-02   -0.26260E-02   648   0.694E-02 0.119E-01
DMP:   8    -0.240128608956E+04   -0.20291E-02   -0.13068E-02   648   0.290E-02 0.699E-02
DMP:   9    -0.240128706711E+04   -0.97755E-03   -0.62853E-03   648   0.152E-02 0.313E-02
DMP:  10    -0.240128756386E+04   -0.49674E-03   -0.38358E-03   648   0.101E-02 0.175E-02
DMP:  11    -0.240128788887E+04   -0.32501E-03   -0.26015E-03   648   0.634E-03 0.128E-02
DMP:  12    -0.240128811279E+04   -0.22393E-03   -0.16644E-03   648   0.361E-03 0.906E-03
DMP:  13    -0.240128825652E+04   -0.14373E-03   -0.10368E-03   648   0.216E-03 0.583E-03
DMP:  14    -0.240128834768E+04   -0.91160E-04   -0.69020E-04   648   0.148E-03 0.379E-03
DMP:  15    -0.240128841000E+04   -0.62323E-04   -0.50380E-04   648   0.112E-03 0.269E-03
DMP:  16    -0.240128845622E+04   -0.46214E-04   -0.38468E-04   648   0.855E-04 0.206E-03
DMP:  17    -0.240128849164E+04   -0.35419E-04   -0.29832E-04   648   0.659E-04 0.160E-03
DMP:  18    -0.240128851912E+04   -0.27488E-04   -0.23449E-04   648   0.518E-04 0.126E-03
DMP:  19    -0.240128854074E+04   -0.21618E-04   -0.18679E-04   648   0.413E-04 0.100E-03
DMP:  20    -0.240128855794E+04   -0.17197E-04   -0.14983E-04   648   0.331E-04 0.805E-04
DMP:  21    -0.240128857169E+04   -0.13751E-04   -0.12055E-04   648   0.266E-04 0.648E-04
DMP:  22    -0.240128858271E+04   -0.11016E-04   -0.96946E-05   648   0.214E-04 0.521E-04
DMP:  23    -0.240128859153E+04   -0.88192E-05   -0.77696E-05   648   0.171E-04 0.418E-04
   1 F= -.24012886E+04 E0= -.24012886E+04  d E =-.240129E+04  mag=     2.0000
       N       E                     dE             d eps       ncg     rms          ort
SDA:   1    -0.238513696740E+04    0.16152E+02   -0.63256E+01   648   0.316E+02 0.000E+00
DMP:   2    -0.239070803875E+04   -0.55711E+01   -0.63376E+01   648   0.192E+02 0.241E+02
DMP:   3    -0.239580120605E+04   -0.50932E+01   -0.35922E+01   648   0.795E+01 0.193E+02
DMP:   4    -0.239844666319E+04   -0.26455E+01   -0.14239E+01   648   0.269E+01 0.853E+01
DMP:   5    -0.239940381795E+04   -0.95715E+00   -0.48280E+00   648   0.113E+01 0.247E+01
DMP:   6    -0.239970248367E+04   -0.29867E+00   -0.18591E+00   648   0.626E+00 0.585E+00
DMP:   7    -0.239980979187E+04   -0.10731E+00   -0.79521E-01   648   0.319E+00 0.151E+00
DMP:   8    -0.239985080041E+04   -0.41009E-01   -0.34285E-01   648   0.162E+00 0.175E-01
DMP:   9    -0.239986860083E+04   -0.17800E-01   -0.23235E-01   648   0.111E+00 0.989E-02
DMP:  10    -0.239988518165E+04   -0.16581E-01   -0.21047E-01   648   0.784E-01 0.516E-01
DMP:  11    -0.239990207338E+04   -0.16892E-01   -0.15584E-01   648   0.442E-01 0.649E-01
DMP:  12    -0.239991438620E+04   -0.12313E-01   -0.87015E-02   648   0.195E-01 0.461E-01
DMP:  13    -0.239992093694E+04   -0.65507E-02   -0.39019E-02   648   0.766E-02 0.228E-01
DMP:  14    -0.239992371755E+04   -0.27806E-02   -0.16288E-02   648   0.348E-02 0.898E-02
DMP:  15    -0.239992483737E+04   -0.11198E-02   -0.79101E-03   648   0.208E-02 0.361E-02
DMP:  16    -0.239992538881E+04   -0.55143E-03   -0.48241E-03   648   0.137E-02 0.201E-02
DMP:  17    -0.239992573423E+04   -0.34542E-03   -0.32145E-03   648   0.873E-03 0.141E-02
DMP:  18    -0.239992596632E+04   -0.23209E-03   -0.22100E-03   648   0.569E-03 0.103E-02
DMP:  19    -0.239992612733E+04   -0.16101E-03   -0.16342E-03   648   0.408E-03 0.787E-03
DMP:  20    -0.239992624779E+04   -0.12047E-03   -0.12944E-03   648   0.313E-03 0.644E-03
DMP:  21    -0.239992634322E+04   -0.95422E-04   -0.10584E-03   648   0.247E-03 0.542E-03
DMP:  22    -0.239992642042E+04   -0.77204E-04   -0.88507E-04   648   0.204E-03 0.458E-03
DMP:  23    -0.239992648432E+04   -0.63899E-04   -0.76404E-04   648   0.178E-03 0.392E-03
DMP:  24    -0.239992653927E+04   -0.54951E-04   -0.67431E-04   648   0.159E-03 0.343E-03
DMP:  25    -0.239992658780E+04   -0.48525E-04   -0.59680E-04   648   0.141E-03 0.304E-03
DMP:  26    -0.239992663089E+04   -0.43092E-04   -0.52666E-04   648   0.124E-03 0.269E-03
DMP:  27    -0.239992666915E+04   -0.38263E-04   -0.45919E-04   648   0.107E-03 0.236E-03
DMP:  28    -0.239992670277E+04   -0.33616E-04   -0.39335E-04   648   0.903E-04 0.205E-03
DMP:  29    -0.239992673180E+04   -0.29039E-04   -0.33096E-04   648   0.748E-04 0.175E-03
DMP:  30    -0.239992675647E+04   -0.24670E-04   -0.27314E-04   648   0.605E-04 0.146E-03
DMP:  31    -0.239992677706E+04   -0.20584E-04   -0.22228E-04   648   0.484E-04 0.121E-03
DMP:  32    -0.239992679403E+04   -0.16972E-04   -0.17938E-04   648   0.385E-04 0.985E-04
DMP:  33    -0.239992680794E+04   -0.13910E-04   -0.14431E-04   648   0.307E-04 0.798E-04
DMP:  34    -0.239992681932E+04   -0.11385E-04   -0.11648E-04   648   0.247E-04 0.645E-04
DMP:  35    -0.239992682869E+04   -0.93608E-05   -0.95110E-05   648   0.203E-04 0.525E-04
   2 F= -.23999268E+04 E0= -.23999268E+04  d E =0.136176E+01  mag=     2.0000
       N       E                     dE             d eps       ncg     rms          ort
SDA:   1    -0.239241684442E+04    0.75100E+01   -0.39541E+01   648   0.198E+02 0.000E+00
DMP:   2    -0.239587791664E+04   -0.34611E+01   -0.38663E+01   648   0.116E+02 0.148E+02
DMP:   3    -0.239895635695E+04   -0.30784E+01   -0.21155E+01   648   0.463E+01 0.115E+02
DMP:   4    -0.240050036796E+04   -0.15440E+01   -0.82011E+00   648   0.157E+01 0.487E+01
DMP:   5    -0.240105110803E+04   -0.55074E+00   -0.28556E+00   648   0.692E+00 0.142E+01
DMP:   6    -0.240123111396E+04   -0.18001E+00   -0.11459E+00   648   0.376E+00 0.378E+00
DMP:   7    -0.240129972644E+04   -0.68612E-01   -0.49492E-01   648   0.187E+00 0.117E+00
DMP:   8    -0.240132675782E+04   -0.27031E-01   -0.21936E-01   648   0.967E-01 0.251E-01
DMP:   9    -0.240133888322E+04   -0.12125E-01   -0.14886E-01   648   0.678E-01 0.127E-01
DMP:  10    -0.240134960885E+04   -0.10726E-01   -0.13517E-01   648   0.502E-01 0.334E-01
DMP:  11    -0.240136043701E+04   -0.10828E-01   -0.10265E-01   648   0.300E-01 0.410E-01
DMP:  12    -0.240136846519E+04   -0.80282E-02   -0.57405E-02   648   0.136E-01 0.291E-01
DMP:  13    -0.240137266170E+04   -0.41965E-02   -0.23828E-02   648   0.495E-02 0.134E-01
DMP:  14    -0.240137425851E+04   -0.15968E-02   -0.83928E-03   648   0.204E-02 0.416E-02
DMP:  15    -0.240137478523E+04   -0.52672E-03   -0.36031E-03   648   0.121E-02 0.114E-02
DMP:  16    -0.240137502410E+04   -0.23887E-03   -0.21964E-03   648   0.770E-03 0.631E-03
DMP:  17    -0.240137518510E+04   -0.16100E-03   -0.14850E-03   648   0.462E-03 0.539E-03
DMP:  18    -0.240137529978E+04   -0.11467E-03   -0.97796E-04   648   0.270E-03 0.422E-03
DMP:  19    -0.240137537733E+04   -0.77550E-04   -0.63280E-04   648   0.161E-03 0.299E-03
DMP:  20    -0.240137542830E+04   -0.50972E-04   -0.40818E-04   648   0.986E-04 0.203E-03
DMP:  21    -0.240137546128E+04   -0.32983E-04   -0.25984E-04   648   0.600E-04 0.135E-03
DMP:  22    -0.240137548209E+04   -0.20807E-04   -0.16109E-04   648   0.356E-04 0.866E-04
DMP:  23    -0.240137549481E+04   -0.12724E-04   -0.10042E-04   648   0.218E-04 0.546E-04
DMP:  24    -0.240137550267E+04   -0.78615E-05   -0.66439E-05   648   0.147E-04 0.356E-04
   3 F= -.24013755E+04 E0= -.24013755E+04  d E =-.869111E-01  mag=     2.0000
       N       E                     dE             d eps       ncg     rms          ort
SDA:   1    -0.240136449245E+04    0.11002E-01   -0.54098E-02   648   0.270E-01 0.000E+00
DMP:   2    -0.240136924891E+04   -0.47565E-02   -0.53613E-02   648   0.161E-01 0.205E-01
DMP:   3    -0.240137354970E+04   -0.43008E-02   -0.29768E-02   648   0.646E-02 0.162E-01
DMP:   4    -0.240137574735E+04   -0.21976E-02   -0.11678E-02   648   0.215E-02 0.711E-02
DMP:   5    -0.240137654953E+04   -0.80218E-03   -0.42238E-03   648   0.971E-03 0.220E-02
DMP:   6    -0.240137683217E+04   -0.28264E-03   -0.19105E-03   648   0.580E-03 0.723E-03
DMP:   7    -0.240137696351E+04   -0.13135E-03   -0.10102E-03   648   0.317E-03 0.363E-03
DMP:   8    -0.240137703366E+04   -0.70144E-04   -0.52430E-04   648   0.159E-03 0.199E-03
DMP:   9    -0.240137707055E+04   -0.36894E-04   -0.29247E-04   648   0.900E-04 0.108E-03
DMP:  10    -0.240137709258E+04   -0.22030E-04   -0.19683E-04   648   0.594E-04 0.751E-04
DMP:  11    -0.240137710845E+04   -0.15869E-04   -0.13978E-04   648   0.381E-04 0.611E-04
DMP:  12    -0.240137711988E+04   -0.11432E-04   -0.89864E-05   648   0.215E-04 0.452E-04
DMP:  13    -0.240137712712E+04   -0.72330E-05   -0.50869E-05   648   0.109E-04 0.280E-04
   4 F= -.24013771E+04 E0= -.24013771E+04  d E =-.885356E-01  mag=     2.0000
       N       E                     dE             d eps       ncg     rms          ort
SDA:   1    -0.239937516413E+04    0.20020E+01   -0.77952E+00   648   0.390E+01 0.000E+00
DMP:   2    -0.240006467002E+04   -0.68951E+00   -0.79100E+00   648   0.240E+01 0.300E+01
DMP:   3    -0.240070736934E+04   -0.64270E+00   -0.46422E+00   648   0.104E+01 0.247E+01
DMP:   4    -0.240105662289E+04   -0.34925E+00   -0.19571E+00   648   0.371E+00 0.117E+01
DMP:   5    -0.240119255460E+04   -0.13593E+00   -0.68946E-01   648   0.148E+00 0.379E+00
DMP:   6    -0.240123617397E+04   -0.43619E-01   -0.23802E-01   648   0.718E-01 0.909E-01
DMP:   7    -0.240124928001E+04   -0.13106E-01   -0.84027E-02   648   0.359E-01 0.118E-01
DMP:   8    -0.240125312023E+04   -0.38402E-02   -0.38450E-02   648   0.212E-01-0.375E-02
DMP:   9    -0.240125521004E+04   -0.20898E-02   -0.32108E-02   648   0.152E-01 0.160E-02
DMP:  10    -0.240125763142E+04   -0.24214E-02   -0.28274E-02   648   0.992E-02 0.812E-02
DMP:  11    -0.240125990701E+04   -0.22756E-02   -0.19427E-02   648   0.525E-02 0.860E-02
DMP:  12    -0.240126144072E+04   -0.15337E-02   -0.10542E-02   648   0.236E-02 0.561E-02
DMP:  13    -0.240126224129E+04   -0.80057E-03   -0.48569E-03   648   0.101E-02 0.273E-02
DMP:  14    -0.240126259424E+04   -0.35294E-03   -0.20622E-03   648   0.461E-03 0.110E-02
DMP:  15    -0.240126273858E+04   -0.14434E-03   -0.90562E-04   648   0.239E-03 0.412E-03
DMP:  16    -0.240126280095E+04   -0.62371E-04   -0.44816E-04   648   0.134E-03 0.173E-03
DMP:  17    -0.240126283218E+04   -0.31230E-04   -0.25018E-04   648   0.775E-04 0.917E-04
DMP:  18    -0.240126285028E+04   -0.18104E-04   -0.15458E-04   648   0.461E-04 0.601E-04
DMP:  19    -0.240126286200E+04   -0.11712E-04   -0.10253E-04   648   0.283E-04 0.442E-04
DMP:  20    -0.240126287001E+04   -0.80188E-05   -0.70202E-05   648   0.178E-04 0.333E-04
   5 F= -.24012629E+04 E0= -.24012629E+04  d E =0.114257E+00  mag=     2.0000
       N       E                     dE             d eps       ncg     rms          ort
SDA:   1    -0.240046690606E+04    0.79596E+00   -0.39006E+00   648   0.195E+01 0.000E+00
DMP:   2    -0.240081105705E+04   -0.34415E+00   -0.39488E+00   648   0.120E+01 0.149E+01
DMP:   3    -0.240112973714E+04   -0.31868E+00   -0.22659E+00   648   0.503E+00 0.121E+01
DMP:   4    -0.240129837200E+04   -0.16863E+00   -0.91036E-01   648   0.167E+00 0.554E+00
DMP:   5    -0.240136083381E+04   -0.62462E-01   -0.30392E-01   648   0.638E-01 0.170E+00
DMP:   6    -0.240138003088E+04   -0.19197E-01   -0.10695E-01   648   0.326E-01 0.402E-01
DMP:   7    -0.240138634671E+04   -0.63158E-02   -0.45651E-02   648   0.177E-01 0.979E-02
DMP:   8    -0.240138897542E+04   -0.26287E-02   -0.23768E-02   648   0.100E-01 0.353E-02
DMP:   9    -0.240139046082E+04   -0.14854E-02   -0.16723E-02   648   0.679E-02 0.302E-02
DMP:  10    -0.240139170570E+04   -0.12449E-02   -0.14137E-02   648   0.493E-02 0.411E-02
DMP:  11    -0.240139285260E+04   -0.11469E-02   -0.10965E-02   648   0.319E-02 0.442E-02
DMP:  12    -0.240139374029E+04   -0.88768E-03   -0.69282E-03   648   0.170E-02 0.340E-02
DMP:  13    -0.240139428129E+04   -0.54100E-03   -0.35360E-03   648   0.754E-03 0.195E-02
DMP:  14    -0.240139454475E+04   -0.26347E-03   -0.15170E-03   648   0.307E-03 0.870E-03
DMP:  15    -0.240139465275E+04   -0.10800E-03   -0.60353E-04   648   0.134E-03 0.323E-03
DMP:  16    -0.240139469486E+04   -0.42106E-04   -0.27228E-04   648   0.738E-04 0.120E-03
DMP:  17    -0.240139471463E+04   -0.19771E-04   -0.15795E-04   648   0.468E-04 0.619E-04
DMP:  18    -0.240139472700E+04   -0.12371E-04   -0.10839E-04   648   0.308E-04 0.451E-04
DMP:  19    -0.240139473595E+04   -0.89478E-05   -0.77607E-05   648   0.202E-04 0.357E-04
   6 F= -.24013947E+04 E0= -.24013947E+04  d E =-.176088E-01  mag=     2.0000
       N       E                     dE             d eps       ncg     rms          ort
SDA:   1    -0.240139304556E+04    0.16814E-02   -0.72405E-03   648   0.362E-02 0.000E+00
DMP:   2    -0.240139368522E+04   -0.63966E-03   -0.73623E-03   648   0.224E-02 0.278E-02
DMP:   3    -0.240139428045E+04   -0.59523E-03   -0.42323E-03   648   0.935E-03 0.227E-02
DMP:   4    -0.240139459700E+04   -0.31655E-03   -0.17129E-03   648   0.310E-03 0.105E-02
DMP:   5    -0.240139471694E+04   -0.11994E-03   -0.61266E-04   648   0.127E-03 0.345E-03
DMP:   6    -0.240139475857E+04   -0.41629E-04   -0.26002E-04   648   0.724E-04 0.111E-03
DMP:   7    -0.240139477686E+04   -0.18287E-04   -0.14102E-04   648   0.428E-04 0.533E-04
DMP:   8    -0.240139478736E+04   -0.10508E-04   -0.86631E-05   648   0.252E-04 0.348E-04
DMP:   9    -0.240139479417E+04   -0.68039E-05   -0.57669E-05   648   0.159E-04 0.249E-04
   7 F= -.24013948E+04 E0= -.24013948E+04  d E =-.176671E-01  mag=     2.0000
       N       E                     dE             d eps       ncg     rms          ort
SDA:   1    -0.240139395608E+04    0.83128E-03   -0.27234E-03   648   0.136E-02 0.000E+00
DMP:   2    -0.240139419560E+04   -0.23951E-03   -0.27108E-03   648   0.818E-03 0.103E-02
DMP:   3    -0.240139441320E+04   -0.21761E-03   -0.15171E-03   648   0.331E-03 0.823E-03
DMP:   4    -0.240139452615E+04   -0.11294E-03   -0.61865E-04   648   0.116E-03 0.372E-03
DMP:   5    -0.240139457019E+04   -0.44047E-04   -0.24852E-04   648   0.556E-04 0.132E-03
DMP:   6    -0.240139458821E+04   -0.18021E-04   -0.12493E-04   648   0.332E-04 0.564E-04
DMP:   7    -0.240139459772E+04   -0.95096E-05   -0.71236E-05   648   0.186E-04 0.328E-04
   8 F= -.24013946E+04 E0= -.24013946E+04  d E =-.174706E-01  mag=     2.0000
       N       E                     dE             d eps       ncg     rms          ort
SDA:   1    -0.240139455988E+04    0.28333E-04   -0.64695E-04   648   0.323E-03 0.000E+00
DMP:   2    -0.240139461736E+04   -0.57478E-04   -0.63722E-04   648   0.188E-03 0.251E-03
DMP:   3    -0.240139466982E+04   -0.52466E-04   -0.37392E-04   648   0.801E-04 0.206E-03
DMP:   4    -0.240139469886E+04   -0.29039E-04   -0.16982E-04   648   0.313E-04 0.103E-03
DMP:   5    -0.240139471161E+04   -0.12741E-04   -0.74397E-05   648   0.152E-04 0.423E-04
DMP:   6    -0.240139471719E+04   -0.55883E-05   -0.36477E-05   648   0.856E-05 0.186E-04
   9 F= -.24013947E+04 E0= -.24013947E+04  d E =-.175901E-01  mag=     2.0000
       N       E                     dE             d eps       ncg     rms          ort
SDA:   1    -0.240118093518E+04    0.21378E+00   -0.80701E-01   648   0.404E+00 0.000E+00
DMP:   2    -0.240125260479E+04   -0.71670E-01   -0.82535E-01   648   0.250E+00 0.313E+00
DMP:   3    -0.240132018207E+04   -0.67577E-01   -0.49479E-01   648   0.111E+00 0.263E+00
DMP:   4    -0.240135781615E+04   -0.37634E-01   -0.21427E-01   648   0.401E-01 0.129E+00
DMP:   5    -0.240137293508E+04   -0.15119E-01   -0.77218E-02   648   0.157E-01 0.442E-01
DMP:   6    -0.240137799947E+04   -0.50644E-02   -0.28444E-02   648   0.793E-02 0.121E-01
DMP:   7    -0.240137974865E+04   -0.17492E-02   -0.11849E-02   648   0.420E-02 0.331E-02
DMP:   8    -0.240138044644E+04   -0.69778E-03   -0.57336E-03   648   0.231E-02 0.108E-02
DMP:   9    -0.240138081024E+04   -0.36380E-03   -0.37918E-03   648   0.149E-02 0.785E-03
DMP:  10    -0.240138109632E+04   -0.28608E-03   -0.29839E-03   648   0.987E-03 0.972E-03
DMP:  11    -0.240138133964E+04   -0.24332E-03   -0.21474E-03   648   0.583E-03 0.946E-03
DMP:  12    -0.240138151557E+04   -0.17593E-03   -0.13245E-03   648   0.305E-03 0.688E-03
DMP:  13    -0.240138162233E+04   -0.10676E-03   -0.72224E-04   648   0.150E-03 0.407E-03
DMP:  14    -0.240138167953E+04   -0.57196E-04   -0.36786E-04   648   0.737E-04 0.212E-03
DMP:  15    -0.240138170837E+04   -0.28846E-04   -0.18633E-04   648   0.385E-04 0.105E-03
DMP:  16    -0.240138172305E+04   -0.14678E-04   -0.99029E-05   648   0.215E-04 0.540E-04
DMP:  17    -0.240138173100E+04   -0.79442E-05   -0.56276E-05   648   0.125E-04 0.301E-04
  10 F= -.24013817E+04 E0= -.24013817E+04  d E =0.129862E-01  mag=     2.0000
       N       E                     dE             d eps       ncg     rms          ort
SDA:   1    -0.240130720837E+04    0.74515E-01   -0.37129E-01   648   0.186E+00 0.000E+00
DMP:   2    -0.240134005699E+04   -0.32849E-01   -0.37741E-01   648   0.114E+00 0.143E+00
DMP:   3    -0.240137069722E+04   -0.30640E-01   -0.21942E-01   648   0.486E-01 0.118E+00
DMP:   4    -0.240138723981E+04   -0.16543E-01   -0.91191E-02   648   0.166E-01 0.558E-01
DMP:   5    -0.240139368049E+04   -0.64407E-02   -0.32867E-02   648   0.664E-02 0.188E-01
DMP:   6    -0.240139588148E+04   -0.22010E-02   -0.12686E-02   648   0.343E-02 0.560E-02
DMP:   7    -0.240139671138E+04   -0.82990E-03   -0.59261E-03   648   0.194E-02 0.197E-02
DMP:   8    -0.240139710835E+04   -0.39697E-03   -0.33518E-03   648   0.115E-02 0.101E-02
DMP:   9    -0.240139734888E+04   -0.24053E-03   -0.22181E-03   648   0.728E-03 0.734E-03
DMP:  10    -0.240139752035E+04   -0.17147E-03   -0.15545E-03   648   0.461E-03 0.608E-03
DMP:  11    -0.240139764460E+04   -0.12425E-03   -0.10181E-03   648   0.267E-03 0.467E-03
DMP:  12    -0.240139772557E+04   -0.80970E-04   -0.58105E-04   648   0.134E-03 0.302E-03
DMP:  13    -0.240139777083E+04   -0.45256E-04   -0.29184E-04   648   0.615E-04 0.163E-03
DMP:  14    -0.240139779312E+04   -0.22293E-04   -0.13739E-04   648   0.286E-04 0.773E-04
DMP:  15    -0.240139780359E+04   -0.10468E-04   -0.67581E-05   648   0.151E-04 0.361E-04
DMP:  16    -0.240139780888E+04   -0.52936E-05   -0.38150E-05   648   0.913E-05 0.191E-04
  11 F= -.24013978E+04 E0= -.24013978E+04  d E =-.309169E-02  mag=     2.0000
       N       E                     dE             d eps       ncg     rms          ort
SDA:   1    -0.240139749209E+04    0.31150E-03   -0.13028E-03   648   0.651E-03 0.000E+00
DMP:   2    -0.240139760789E+04   -0.11580E-03   -0.13377E-03   648   0.406E-03 0.507E-03
DMP:   3    -0.240139771748E+04   -0.10960E-03   -0.79804E-04   648   0.177E-03 0.428E-03
DMP:   4    -0.240139777854E+04   -0.61061E-04   -0.34481E-04   648   0.623E-04 0.212E-03
DMP:   5    -0.240139780356E+04   -0.25019E-04   -0.13244E-04   648   0.256E-04 0.781E-04
DMP:   6    -0.240139781298E+04   -0.94146E-05   -0.57742E-05   648   0.143E-04 0.281E-04
  12 F= -.24013978E+04 E0= -.24013978E+04  d E =-.309578E-02  mag=     2.0000
       N       E                     dE             d eps       ncg     rms          ort
SDA:   1    -0.240138446992E+04    0.13334E-01   -0.57146E-02   648   0.286E-01 0.000E+00
DMP:   2    -0.240138954331E+04   -0.50734E-02   -0.58447E-02   648   0.177E-01 0.222E-01
DMP:   3    -0.240139431885E+04   -0.47755E-02   -0.34671E-02   648   0.771E-02 0.185E-01
DMP:   4    -0.240139694602E+04   -0.26272E-02   -0.14693E-02   648   0.270E-02 0.894E-02
DMP:   5    -0.240139798118E+04   -0.10352E-02   -0.52879E-03   648   0.108E-02 0.301E-02
DMP:   6    -0.240139833363E+04   -0.35245E-03   -0.21010E-03   648   0.592E-03 0.882E-03
DMP:   7    -0.240139847268E+04   -0.13905E-03   -0.10369E-03   648   0.341E-03 0.341E-03
DMP:   8    -0.240139854367E+04   -0.70995E-04   -0.58424E-04   648   0.192E-03 0.192E-03
DMP:   9    -0.240139858609E+04   -0.42424E-04   -0.36417E-04   648   0.113E-03 0.133E-03
DMP:  10    -0.240139861435E+04   -0.28258E-04   -0.24088E-04   648   0.680E-04 0.101E-03
DMP:  11    -0.240139863378E+04   -0.19425E-04   -0.15497E-04   648   0.390E-04 0.741E-04
DMP:  12    -0.240139864637E+04   -0.12588E-04   -0.92272E-05   648   0.209E-04 0.486E-04
DMP:  13    -0.240139865381E+04   -0.74443E-05   -0.50954E-05   648   0.107E-04 0.285E-04
  13 F= -.24013987E+04 E0= -.24013987E+04  d E =-.840832E-03  mag=     2.0000
       N       E                     dE             d eps       ncg     rms          ort
SDA:   1    -0.240139277141E+04    0.58750E-02   -0.23187E-02   648   0.116E-01 0.000E+00
DMP:   2    -0.240139483064E+04   -0.20592E-02   -0.23630E-02   648   0.714E-02 0.900E-02
DMP:   3    -0.240139676505E+04   -0.19344E-02   -0.13970E-02   648   0.307E-02 0.753E-02
DMP:   4    -0.240139783216E+04   -0.10671E-02   -0.59853E-03   648   0.108E-02 0.369E-02
DMP:   5    -0.240139826344E+04   -0.43128E-03   -0.22482E-03   648   0.437E-03 0.132E-02
DMP:   6    -0.240139842032E+04   -0.15688E-03   -0.93715E-04   648   0.237E-03 0.447E-03
DMP:   7    -0.240139848669E+04   -0.66367E-04   -0.48138E-04   648   0.139E-03 0.196E-03
DMP:   8    -0.240139852213E+04   -0.35439E-04   -0.27579E-04   648   0.785E-04 0.114E-03
DMP:   9    -0.240139854326E+04   -0.21132E-04   -0.16803E-04   648   0.456E-04 0.739E-04
DMP:  10    -0.240139855668E+04   -0.13425E-04   -0.10807E-04   648   0.278E-04 0.505E-04
DMP:  11    -0.240139856557E+04   -0.88915E-05   -0.69728E-05   648   0.166E-04 0.351E-04
  14 F= -.24013986E+04 E0= -.24013986E+04  d E =-.752598E-03  mag=     2.0000
       N       E                     dE             d eps       ncg     rms          ort
SDA:   1    -0.240139846512E+04    0.91561E-04   -0.15177E-04   648   0.759E-04 0.000E+00
DMP:   2    -0.240139847850E+04   -0.13377E-04   -0.14766E-04   648   0.437E-04 0.580E-04
DMP:   3    -0.240139849049E+04   -0.11988E-04   -0.84004E-05   648   0.180E-04 0.463E-04
DMP:   4    -0.240139849696E+04   -0.64701E-05   -0.38719E-05   648   0.747E-05 0.229E-04
  15 F= -.24013985E+04 E0= -.24013985E+04  d E =-.683980E-03  mag=     2.0000
       N       E                     dE             d eps       ncg     rms          ort
SDA:   1    -0.240139853808E+04   -0.47598E-04   -0.44903E-05   648   0.225E-04 0.000E+00
DMP:   2    -0.240139854202E+04   -0.39382E-05   -0.42090E-05   648   0.123E-04 0.168E-04
  16 F= -.24013985E+04 E0= -.24013985E+04  d E =-.729046E-03  mag=     2.0000
       N       E                     dE             d eps       ncg     rms          ort
SDA:   1    -0.240139852539E+04    0.12695E-04   -0.37700E-06   648   0.188E-05 0.000E+00
DMP:   2    -0.240139852574E+04   -0.35215E-06   -0.43751E-06   648   0.133E-05 0.165E-05
  17 F= -.24013985E+04 E0= -.24013985E+04  d E =-.712765E-03  mag=     2.0000
       N       E                     dE             d eps       ncg     rms          ort
SDA:   1    -0.240139853209E+04   -0.66960E-05   -0.21406E-06   648   0.107E-05 0.000E+00
DMP:   2    -0.240139853229E+04   -0.20167E-06   -0.25205E-06   648   0.773E-06 0.939E-06
  18 F= -.24013985E+04 E0= -.24013985E+04  d E =-.719310E-03  mag=     2.0000
       N       E                     dE             d eps       ncg     rms          ort
SDA:   1    -0.240139759244E+04    0.93965E-03   -0.38428E-03   648   0.192E-02 0.000E+00
DMP:   2    -0.240139793810E+04   -0.34566E-03   -0.40602E-03   648   0.123E-02 0.153E-02
DMP:   3    -0.240139827826E+04   -0.34016E-03   -0.25852E-03   648   0.580E-03 0.137E-02
DMP:   4    -0.240139848195E+04   -0.20369E-03   -0.12107E-03   648   0.219E-03 0.744E-03
DMP:   5    -0.240139857194E+04   -0.89989E-04   -0.46773E-04   648   0.809E-04 0.294E-03
DMP:   6    -0.240139860509E+04   -0.33149E-04   -0.18151E-04   648   0.400E-04 0.977E-04
DMP:   7    -0.240139861793E+04   -0.12838E-04   -0.89200E-05   648   0.250E-04 0.378E-04
DMP:   8    -0.240139862460E+04   -0.66710E-05   -0.53980E-05   648   0.154E-04 0.223E-04
  19 F= -.24013986E+04 E0= -.24013986E+04  d E =-.923089E-04  mag=     2.0000
       N       E                     dE             d eps       ncg     rms          ort
SDA:   1    -0.240139857763E+04    0.40297E-04   -0.24082E-04   648   0.120E-03 0.000E+00
DMP:   2    -0.240139859927E+04   -0.21639E-04   -0.25082E-04   648   0.754E-04 0.962E-04
DMP:   3    -0.240139862026E+04   -0.20996E-04   -0.15686E-04   648   0.344E-04 0.848E-04
DMP:   4    -0.240139863269E+04   -0.12425E-04   -0.73833E-05   648   0.130E-04 0.460E-04
DMP:   5    -0.240139863834E+04   -0.56539E-05   -0.31539E-05   648   0.554E-05 0.197E-04
  20 F= -.24013986E+04 E0= -.24013986E+04  d E =-.106055E-03  mag=     2.0000
       N       E                     dE             d eps       ncg     rms          ort
SDA:   1    -0.240139851525E+04    0.11744E-03   -0.38818E-04   648   0.194E-03 0.000E+00
DMP:   2    -0.240139855035E+04   -0.35096E-04   -0.41746E-04   648   0.127E-03 0.157E-03
DMP:   3    -0.240139858565E+04   -0.35300E-04   -0.27338E-04   648   0.616E-04 0.145E-03
DMP:   4    -0.240139860754E+04   -0.21889E-04   -0.13376E-04   648   0.241E-04 0.824E-04
DMP:   5    -0.240139861778E+04   -0.10243E-04   -0.55350E-05   648   0.917E-05 0.356E-04
DMP:   6    -0.240139862192E+04   -0.41393E-05   -0.23109E-05   648   0.442E-05 0.137E-04
  21 F= -.24013986E+04 E0= -.24013986E+04  d E =-.896301E-04  mag=     2.0000
