 vasp.5.4.4.18Apr17-6-g9f103f2a35 (build May 07 2022 11:18:47) complex          
  
 executed on             LinuxIFC date 2026.05.14  00:41:13
 running on   48 total cores
 distrk:  each k-point on   48 cores,    1 groups
 distr:  one band on NCORES_PER_BAND=  24 cores,    2 groups


--------------------------------------------------------------------------------------------------------


 INCAR:
 POTCAR:   PAW_PBE N 08Apr2002                    
 POTCAR:   PAW_PBE C 08Apr2002                    

 ----------------------------------------------------------------------------- 
|                                                                             |
|           W    W    AA    RRRRR   N    N  II  N    N   GGGG   !!!           |
|           W    W   A  A   R    R  NN   N  II  NN   N  G    G  !!!           |
|           W    W  A    A  R    R  N N  N  II  N N  N  G       !!!           |
|           W WW W  AAAAAA  RRRRR   N  N N  II  N  N N  G  GGG   !            |
|           WW  WW  A    A  R   R   N   NN  II  N   NN  G    G                |
|           W    W  A    A  R    R  N    N  II  N    N   GGGG   !!!           |
|                                                                             |
|      For optimal performance we recommend to set                            |
|        NCORE= 4 - approx SQRT( number of cores)                             |
|      NCORE specifies how many cores store one orbital (NPAR=cpu/NCORE).     |
|      This setting can  greatly improve the performance of VASP for DFT.     |
|      The default,   NCORE=1            might be grossly inefficient         |
|      on modern multi-core architectures or massively parallel machines.     |
|      Do your own testing !!!!                                               |
|      Unfortunately you need to use the default for GW and RPA calculations. |
|      (for HF NCORE is supported but not extensively tested yet)             |
|                                                                             |
 ----------------------------------------------------------------------------- 

 POTCAR:   PAW_PBE N 08Apr2002                    
   VRHFIN =N: s2p3                                                              
   LEXCH  = PE                                                                  
   EATOM  =   264.5486 eV,   19.4438 Ry                                         
                                                                                
   TITEL  = PAW_PBE N 08Apr2002                                                 
   LULTRA =        F    use ultrasoft PP ?                                      
   IUNSCR =        0    unscreen: 0-lin 1-nonlin 2-no                           
   RPACOR =     .000    partial core radius                                     
   POMASS =   14.001; ZVAL   =    5.000    mass and valenz                      
   RCORE  =    1.500    outmost cutoff radius                                   
   RWIGS  =    1.400; RWIGS  =     .741    wigner-seitz radius (au A)           
   ENMAX  =  400.000; ENMIN  =  300.000 eV                                      
   ICORE  =        2    local potential                                         
   LCOR   =        T    correct aug charges                                     
   LPAW   =        T    paw PP                                                  
   EAUG   =  627.112                                                            
   DEXC   =     .000                                                            
   RMAX   =    2.247    core radius for proj-oper                               
   RAUG   =    1.300    factor for augmentation sphere                          
   RDEP   =    1.514    radius for radial grids                                 
   QCUT   =   -5.562; QGAM   =   11.124    optimization parameters              
                                                                                
   Description                                                                  
     l     E      TYP  RCUT    TYP  RCUT                                        
     0   .000     23  1.200                                                     
     0   .000     23  1.200                                                     
     1   .000     23  1.500                                                     
     1   .700     23  1.500                                                     
     2   .000      7  1.500                                                     
  local pseudopotential read in
  atomic valenz-charges read in
  non local Contribution for L=           0  read in
    real space projection operators read in
  non local Contribution for L=           0  read in
    real space projection operators read in
  non local Contribution for L=           1  read in
    real space projection operators read in
  non local Contribution for L=           1  read in
    real space projection operators read in
    PAW grid and wavefunctions read in
 
   number of l-projection  operators is LMAX  =           4
   number of lm-projection operators is LMMAX =           8
 
 POTCAR:   PAW_PBE C 08Apr2002                    
   VRHFIN =C: s2p2                                                              
   LEXCH  = PE                                                                  
   EATOM  =   147.1560 eV,   10.8157 Ry                                         
                                                                                
   TITEL  = PAW_PBE C 08Apr2002                                                 
   LULTRA =        F    use ultrasoft PP ?                                      
   IUNSCR =        0    unscreen: 0-lin 1-nonlin 2-no                           
   RPACOR =     .000    partial core radius                                     
   POMASS =   12.011; ZVAL   =    4.000    mass and valenz                      
   RCORE  =    1.500    outmost cutoff radius                                   
   RWIGS  =    1.630; RWIGS  =     .863    wigner-seitz radius (au A)           
   ENMAX  =  400.000; ENMIN  =  300.000 eV                                      
   ICORE  =        2    local potential                                         
   LCOR   =        T    correct aug charges                                     
   LPAW   =        T    paw PP                                                  
   EAUG   =  644.873                                                            
   DEXC   =     .000                                                            
   RMAX   =    2.266    core radius for proj-oper                               
   RAUG   =    1.300    factor for augmentation sphere                          
   RDEP   =    1.501    radius for radial grids                                 
   RDEPT  =    1.300    core radius for aug-charge                              
   QCUT   =   -5.516; QGAM   =   11.032    optimization parameters              
                                                                                
   Description                                                                  
     l     E      TYP  RCUT    TYP  RCUT                                        
     0   .000     23  1.200                                                     
     0   .000     23  1.200                                                     
     1   .000     23  1.500                                                     
     1  2.500     23  1.500                                                     
     2   .000      7  1.500                                                     
  local pseudopotential read in
  atomic valenz-charges read in
  non local Contribution for L=           0  read in
    real space projection operators read in
  non local Contribution for L=           0  read in
    real space projection operators read in
  non local Contribution for L=           1  read in
    real space projection operators read in
  non local Contribution for L=           1  read in
    real space projection operators read in
    PAW grid and wavefunctions read in
 
   number of l-projection  operators is LMAX  =           4
   number of lm-projection operators is LMMAX =           8
 
 Optimization of the real space projectors (new method)

 maximal supplied QI-value         = 25.13
 optimisation between [QCUT,QGAM] = [ 11.56, 23.12] = [ 37.43,149.72] Ry 
 Optimized for a Real-space Cutoff    1.25 Angstroem

   l    n(q)    QCUT    max X(q) W(low)/X(q) W(high)/X(q)  e(spline) 
   0      9    11.561     4.511    0.30E-04    0.28E-04    0.49E-07
   0      9    11.561    37.799    0.51E-04    0.16E-03    0.37E-06
   1      8    11.561     2.478    0.16E-04    0.39E-04    0.64E-07
   1      8    11.561    11.620    0.47E-03    0.29E-03    0.82E-06
 Optimization of the real space projectors (new method)

 maximal supplied QI-value         = 25.13
 optimisation between [QCUT,QGAM] = [ 11.56, 23.12] = [ 37.43,149.72] Ry 
 Optimized for a Real-space Cutoff    1.01 Angstroem

   l    n(q)    QCUT    max X(q) W(low)/X(q) W(high)/X(q)  e(spline) 
   0      7    11.561     5.582    0.37E-04    0.15E-03    0.14E-07
   0      7    11.561    69.432    0.33E-03    0.93E-03    0.20E-06
   1      6    11.561     2.780    0.26E-04    0.68E-04    0.38E-07
   1      6    11.561     4.549    0.40E-03    0.28E-03    0.11E-06
 PAW_PBE N 08Apr2002                    :
 energy of atom  1       EATOM= -264.5486
 kinetic energy error for atom=    0.0125 (will be added to EATOM!!)
 PAW_PBE C 08Apr2002                    :
 energy of atom  2       EATOM= -147.1560
 kinetic energy error for atom=    0.0071 (will be added to EATOM!!)
 
 
 POSCAR: x3                                      
  positions in direct lattice
  velocities in cartesian coordinates
 exchange correlation table for  LEXCH =        8
   RHO(1)=    0.500       N(1)  =     2000
   RHO(2)=  100.500       N(2)  =     4000
 


--------------------------------------------------------------------------------------------------------


 ion  position               nearest neighbor table
   1  0.550  0.384  0.550-   7 1.47  64 1.47 104 1.47
   2  0.958  0.792  0.125- 136 1.54 133 1.54  16 1.54  63 1.54
   3  0.375  0.542  0.875-  42 1.54   9 1.54  40 1.54  27 1.54
   4  0.292  0.125  0.791-  31 1.54 126 1.54 171 1.54 158 1.54
   5  0.293  0.624  0.625- 204 1.54   6 1.54 198 1.55  47 1.55
   6  0.375  0.708  0.708- 172 1.54   9 1.54 168 1.54   5 1.54
   7  0.463  0.458  0.625-   1 1.47   8 1.54  47 1.55  33 1.55
   8  0.542  0.543  0.710-   9 1.53   7 1.54  72 1.54  74 1.54
   9  0.459  0.626  0.792-   8 1.53  10 1.54   3 1.54   6 1.54
  10  0.542  0.709  0.875-   9 1.54 211 1.54  58 1.54  28 1.54
  11  0.625  0.791  0.125-  59 1.54  12 1.54  45 1.55 212 1.55
  12  0.708  0.875  0.208-  11 1.54  21 1.54  23 1.54  17 1.54
  13  0.625  0.959  0.958-  53 1.54  14 1.54 175 1.55 212 1.55
  14  0.708  0.042  0.042-  13 1.54  86 1.54  90 1.54  17 1.54
  15  0.792  0.792  0.959-  16 1.54 215 1.54  53 1.54  59 1.54
  16  0.875  0.875  0.042-  15 1.54  17 1.54 137 1.54   2 1.54
  17  0.791  0.958  0.125-  18 1.54  16 1.54  14 1.54  12 1.54
  18  0.875  0.042  0.208-  17 1.54 145 1.54 135 1.54  98 1.54
  19  0.625  0.792  0.458-  29 1.54  67 1.54  20 1.54 165 1.54
  20  0.708  0.875  0.542-  25 1.54  19 1.54  79 1.54  82 1.54
  21  0.625  0.958  0.292-  12 1.54 165 1.54 189 1.54  22 1.55
  22  0.708  0.041  0.375-  25 1.54  98 1.54  21 1.55  94 1.56
  23  0.791  0.792  0.292-  63 1.54  12 1.54  24 1.54  67 1.54
  24  0.875  0.875  0.375-  25 1.54 143 1.54 145 1.54  23 1.54
  25  0.792  0.958  0.458-  22 1.54  20 1.54  24 1.54  26 1.54
  26  0.874  0.042  0.541- 113 1.54  25 1.54 153 1.55 105 1.55
  27  0.293  0.458  0.791- 204 1.54   3 1.54 128 1.55  33 1.55
  28  0.625  0.792  0.792-  53 1.54  75 1.54 173 1.54  10 1.54
  29  0.542  0.708  0.542- 172 1.54  19 1.54  74 1.54  51 1.55
  30  0.541  0.540  0.377-  51 1.53  50 1.55  66 1.55  64 1.55
  31  0.375  0.208  0.875- 178 1.54 180 1.54   4 1.54  36 1.54
  32  0.293  0.291  0.623- 185 1.50 120 1.54  33 1.55 126 1.56
  33  0.377  0.374  0.707-  36 1.53  32 1.55  27 1.55   7 1.55
  34  0.457  0.126  0.623- 185 1.50 167 1.54  35 1.55 171 1.56
  35  0.541  0.210  0.707-  36 1.53  34 1.55 102 1.55 104 1.55
  36  0.459  0.292  0.791-  33 1.53  35 1.53  31 1.54  37 1.55
  37  0.542  0.375  0.875-  42 1.54  88 1.54  72 1.54  36 1.55
  38  0.292  0.458  0.125- 161 1.54 179 1.54 112 1.54  39 1.55
  39  0.375  0.542  0.208-  44 1.54  48 1.54  38 1.55  50 1.56
  40  0.292  0.625  0.958- 206 1.54 161 1.54  41 1.54   3 1.54
  41  0.375  0.708  0.042-  44 1.54 211 1.54 207 1.54  40 1.54
  42  0.458  0.458  0.958-  37 1.54   3 1.54  43 1.54 179 1.54
  43  0.542  0.542  0.042-  44 1.54  42 1.54  56 1.54  58 1.54
  44  0.458  0.625  0.125-  39 1.54  43 1.54  41 1.54  45 1.54
  45  0.541  0.708  0.209- 164 1.54  44 1.54  11 1.55  66 1.55
  46  0.293  0.457  0.457- 107 1.50 120 1.54  47 1.55 196 1.56
  47  0.377  0.540  0.541-  51 1.53  46 1.55   5 1.55   7 1.55
  48  0.292  0.625  0.292-  49 1.54  39 1.54 196 1.54 190 1.54
  49  0.375  0.708  0.375- 188 1.54 164 1.54  48 1.54  51 1.54
  50  0.457  0.457  0.293- 107 1.50 183 1.54  30 1.55  39 1.56
  51  0.459  0.624  0.459-  30 1.53  47 1.53  49 1.54  29 1.55
  52  0.545  0.202  0.369- 106 1.49  94 1.50  96 1.50
  53  0.708  0.875  0.875-  28 1.54  13 1.54  84 1.54  15 1.54
  54  0.708  0.042  0.708- 102 1.54 105 1.54  79 1.54  84 1.55
  55  0.875  0.375  0.875-  78 1.54 134 1.54  60 1.54 199 1.54
  56  0.625  0.458  0.126-  57 1.54  89 1.54  43 1.54 183 1.54
  57  0.708  0.541  0.209-  66 1.54  68 1.54  56 1.54  62 1.55
  58  0.625  0.625  0.959-  59 1.54  73 1.54  43 1.54  10 1.54
  59  0.708  0.708  0.042-  58 1.54  11 1.54  62 1.54  15 1.54
  60  0.792  0.458  0.959-  61 1.54  73 1.54  89 1.54  55 1.54
  61  0.875  0.542  0.042-  60 1.54 129 1.54  62 1.54 131 1.54
  62  0.791  0.625  0.126-  63 1.54  61 1.54  59 1.54  57 1.55
  63  0.875  0.708  0.209-  62 1.54  23 1.54 193 1.54   2 1.54
  64  0.625  0.458  0.463-   1 1.47  65 1.54  30 1.55  97 1.55
  65  0.710  0.543  0.542-  70 1.53  64 1.54  74 1.54  76 1.54
  66  0.625  0.624  0.293-  57 1.54  67 1.54  45 1.55  30 1.55
  67  0.708  0.708  0.375-  19 1.54  70 1.54  23 1.54  66 1.54
  68  0.791  0.458  0.293-  57 1.54  69 1.54  93 1.55  97 1.55
  69  0.875  0.542  0.375- 191 1.54  70 1.54 193 1.54  68 1.54
  70  0.792  0.626  0.459-  65 1.53  71 1.54  69 1.54  67 1.54
  71  0.875  0.709  0.542-  70 1.54 143 1.54  82 1.54 202 1.54
  72  0.626  0.459  0.793-  73 1.54  37 1.54  81 1.54   8 1.54
  73  0.709  0.542  0.876-  72 1.54  58 1.54  60 1.54 201 1.54
  74  0.626  0.626  0.626-  75 1.54  29 1.54  65 1.54   8 1.54
  75  0.709  0.709  0.709-  74 1.54  28 1.54  82 1.54 201 1.54
  76  0.793  0.459  0.626-  77 1.54 101 1.54  81 1.54  65 1.54
  77  0.876  0.542  0.709-  76 1.54 202 1.54 199 1.54 201 1.54
  78  0.792  0.292  0.792-  81 1.53  55 1.54  80 1.54 103 1.54
  79  0.625  0.959  0.625-  54 1.54  20 1.54 173 1.54 167 1.54
  80  0.875  0.209  0.708- 123 1.54  78 1.54 121 1.54 105 1.54
  81  0.710  0.376  0.710-  78 1.53 104 1.54  72 1.54  76 1.54
  82  0.792  0.792  0.625-  83 1.54  75 1.54  20 1.54  71 1.54
  83  0.875  0.875  0.708-  82 1.54 153 1.54  84 1.54 151 1.54
  84  0.791  0.959  0.791-  85 1.54  83 1.54  53 1.54  54 1.55
  85  0.875  0.042  0.875-  84 1.54  90 1.54 121 1.54 137 1.54
  86  0.625  0.125  0.125-  14 1.54 181 1.54 189 1.54  87 1.55
  87  0.708  0.209  0.208-  92 1.54  98 1.54  86 1.55  96 1.56
  88  0.625  0.292  0.958-  37 1.54 103 1.54  89 1.54 181 1.54
  89  0.708  0.375  0.042-  92 1.54  88 1.54  56 1.54  60 1.54
  90  0.791  0.125  0.958-  85 1.54  14 1.54  91 1.54 103 1.54
  91  0.875  0.208  0.042-  92 1.54 134 1.54 135 1.54  90 1.54
  92  0.792  0.292  0.125-  87 1.54  89 1.54  91 1.54  93 1.54
  93  0.874  0.375  0.209- 115 1.54  92 1.54 129 1.55  68 1.55
  94  0.623  0.126  0.457-  52 1.50 167 1.54  95 1.55  22 1.56
  95  0.707  0.210  0.541- 100 1.53  94 1.55 105 1.55 104 1.55
  96  0.623  0.291  0.293-  52 1.50 183 1.54  97 1.55  87 1.56
  97  0.707  0.374  0.377- 100 1.53  96 1.55  68 1.55  64 1.55
  98  0.791  0.125  0.292-  99 1.54  87 1.54  22 1.54  18 1.54
  99  0.875  0.208  0.375- 115 1.54 113 1.54  98 1.54 100 1.54
 100  0.791  0.292  0.459-  97 1.53  95 1.53  99 1.54 101 1.55
 101  0.875  0.375  0.542- 191 1.54 123 1.54  76 1.54 100 1.55
 102  0.625  0.126  0.791-  54 1.54 103 1.54 175 1.55  35 1.55
 103  0.708  0.209  0.875-  88 1.54  78 1.54  90 1.54 102 1.54
 104  0.625  0.296  0.625-   1 1.47  81 1.54  95 1.55  35 1.55
 105  0.791  0.126  0.625-  54 1.54  80 1.54  26 1.55  95 1.55
 106  0.459  0.125  0.292-  52 1.49 177 1.54 163 1.54 189 1.55
 107  0.369  0.378  0.369- 108 1.49  46 1.50  50 1.50
 108  0.292  0.292  0.292- 107 1.49 177 1.54 118 1.54 112 1.55
 109  0.125  0.125  0.958- 110 1.54 158 1.54 122 1.54 138 1.54
 110  0.208  0.208  0.041- 109 1.54 111 1.54 176 1.54 178 1.54
 111  0.124  0.292  0.124- 112 1.53 132 1.54 110 1.54 159 1.54
 112  0.207  0.374  0.207- 111 1.53 195 1.54  38 1.54 108 1.55
 113  0.958  0.125  0.458-  26 1.54  99 1.54 114 1.54 146 1.54
 114  0.042  0.208  0.541- 125 1.54 113 1.54 119 1.54 123 1.54
 115  0.958  0.292  0.292-  93 1.54  99 1.54 116 1.54 159 1.54
 116  0.042  0.375  0.375- 195 1.54 115 1.54 119 1.54 191 1.54
 117  0.125  0.125  0.292- 118 1.54 142 1.54 159 1.54 146 1.54
 118  0.208  0.208  0.375- 119 1.54 117 1.54 108 1.54 184 1.54
 119  0.125  0.291  0.458- 118 1.54 120 1.54 114 1.54 116 1.54
 120  0.209  0.374  0.541-  32 1.54  46 1.54 119 1.54 203 1.54
 121  0.958  0.125  0.791-  85 1.54 154 1.54 122 1.54  80 1.54
 122  0.042  0.208  0.875- 127 1.54 134 1.54 109 1.54 121 1.54
 123  0.958  0.292  0.625- 101 1.54  80 1.54 124 1.54 114 1.54
 124  0.042  0.375  0.708- 127 1.54 123 1.54 203 1.54 199 1.54
 125  0.125  0.125  0.625- 154 1.54 114 1.54 150 1.54 126 1.55
 126  0.208  0.209  0.708- 127 1.54   4 1.54 125 1.55  32 1.56
 127  0.125  0.292  0.792- 126 1.54 124 1.54 122 1.54 128 1.54
 128  0.209  0.375  0.874- 178 1.54 127 1.54 160 1.55  27 1.55
 129  0.958  0.458  0.125-  61 1.54 130 1.54  93 1.55 132 1.55
 130  0.042  0.541  0.208- 129 1.54 195 1.54 193 1.54 162 1.54
 131  0.959  0.625  0.959- 133 1.54 215 1.54 200 1.54  61 1.54
 132  0.041  0.375  0.041- 111 1.54 134 1.54 129 1.55 160 1.55
 133  0.042  0.708  0.042- 131 1.54 162 1.54   2 1.54 139 1.54
 134  0.958  0.292  0.958- 132 1.54  55 1.54 122 1.54  91 1.54
 135  0.958  0.125  0.125- 159 1.54  18 1.54  91 1.54 138 1.54
 136  0.042  0.875  0.208-   2 1.54 141 1.54 145 1.54 147 1.54
 137  0.958  0.958  0.958- 138 1.54 152 1.54  16 1.54  85 1.54
 138  0.042  0.042  0.042- 137 1.54 141 1.54 135 1.54 109 1.54
 139  0.125  0.792  0.958- 140 1.54 133 1.54 152 1.54 206 1.54
 140  0.208  0.875  0.042- 139 1.54 141 1.54 209 1.54 207 1.54
 141  0.125  0.958  0.125- 142 1.54 140 1.54 136 1.54 138 1.54
 142  0.208  0.042  0.208- 141 1.54 117 1.54 186 1.54 176 1.54
 143  0.958  0.792  0.458- 144 1.54  71 1.54 194 1.54  24 1.54
 144  0.041  0.875  0.541- 149 1.54 143 1.54 153 1.55 155 1.55
 145  0.958  0.958  0.292- 146 1.54  18 1.54  24 1.54 136 1.54
 146  0.041  0.041  0.375- 145 1.54 149 1.54 117 1.54 113 1.54
 147  0.125  0.791  0.292- 148 1.54 190 1.54 194 1.54 136 1.54
 148  0.208  0.875  0.375- 147 1.54 149 1.54 186 1.54 188 1.54
 149  0.124  0.958  0.458- 150 1.53 144 1.54 148 1.54 146 1.54
 150  0.207  0.041  0.541- 149 1.53 125 1.54 170 1.54 184 1.55
 151  0.959  0.792  0.792- 152 1.54 215 1.54 214 1.54  83 1.54
 152  0.042  0.875  0.875- 151 1.54 157 1.54 137 1.54 139 1.54
 153  0.958  0.959  0.625-  83 1.54 154 1.54  26 1.55 144 1.55
 154  0.042  0.042  0.708- 153 1.54 125 1.54 121 1.54 157 1.54
 155  0.125  0.791  0.625- 214 1.54 156 1.54 198 1.55 144 1.55
 156  0.208  0.875  0.708- 155 1.54 170 1.54 168 1.54 157 1.54
 157  0.125  0.958  0.791- 158 1.54 152 1.54 154 1.54 156 1.54
 158  0.208  0.042  0.875- 157 1.54 109 1.54 209 1.54   4 1.54
 159  0.041  0.208  0.208- 135 1.54 111 1.54 117 1.54 115 1.54
 160  0.125  0.458  0.958- 200 1.54 161 1.54 128 1.55 132 1.55
 161  0.208  0.541  0.042- 160 1.54  38 1.54  40 1.54 162 1.54
 162  0.125  0.625  0.125- 190 1.54 133 1.54 161 1.54 130 1.54
 163  0.375  0.042  0.375- 166 1.54 186 1.54 184 1.54 106 1.54
 164  0.458  0.791  0.292-  45 1.54  49 1.54 165 1.54 208 1.54
 165  0.541  0.875  0.375-  21 1.54 164 1.54 166 1.54  19 1.54
 166  0.458  0.959  0.458- 163 1.54 167 1.54 165 1.54 187 1.54
 167  0.541  0.043  0.541-  34 1.54  94 1.54 166 1.54  79 1.54
 168  0.292  0.792  0.791- 206 1.54 156 1.54 169 1.54   6 1.54
 169  0.375  0.875  0.875- 174 1.54 211 1.54 209 1.54 168 1.54
 170  0.292  0.958  0.625- 156 1.54 187 1.54 150 1.54 171 1.55
 171  0.375  0.041  0.708- 174 1.54   4 1.54 170 1.55  34 1.56
 172  0.458  0.792  0.625-  29 1.54   6 1.54 173 1.54 187 1.54
 173  0.542  0.875  0.708- 174 1.54 172 1.54  79 1.54  28 1.54
 174  0.458  0.958  0.792- 171 1.54 173 1.54 169 1.54 175 1.54
 175  0.541  0.042  0.874- 180 1.54 174 1.54  13 1.55 102 1.55
 176  0.292  0.125  0.125- 177 1.54 142 1.54 210 1.54 110 1.54
 177  0.375  0.208  0.208- 182 1.54 176 1.54 108 1.54 106 1.54
 178  0.292  0.292  0.958- 128 1.54  31 1.54 179 1.54 110 1.54
 179  0.375  0.375  0.042-  38 1.54 178 1.54 182 1.54  42 1.54
 180  0.458  0.125  0.958- 175 1.54  31 1.54 181 1.54 210 1.54
 181  0.541  0.208  0.042-  86 1.54 180 1.54 182 1.54  88 1.54
 182  0.458  0.291  0.125- 177 1.54 183 1.54 181 1.54 179 1.54
 183  0.541  0.374  0.209-  96 1.54  50 1.54 182 1.54  56 1.54
 184  0.292  0.125  0.459- 185 1.49 163 1.54 118 1.54 150 1.55
 185  0.369  0.202  0.545- 184 1.49  34 1.50  32 1.50
 186  0.292  0.958  0.292- 163 1.54 142 1.54 208 1.54 148 1.54
 187  0.375  0.875  0.541- 170 1.54 188 1.54 166 1.54 172 1.54
 188  0.292  0.791  0.458- 198 1.54  49 1.54 187 1.54 148 1.54
 189  0.541  0.041  0.207- 213 1.53  21 1.54  86 1.54 106 1.55
 190  0.208  0.708  0.208- 162 1.54 147 1.54 207 1.54  48 1.54
 191  0.958  0.458  0.458- 101 1.54  69 1.54 192 1.54 116 1.54
 192  0.042  0.542  0.542- 197 1.54 191 1.54 203 1.54 202 1.54
 193  0.958  0.625  0.292-  63 1.54 130 1.54 194 1.54  69 1.54
 194  0.042  0.708  0.375- 197 1.54 143 1.54 147 1.54 193 1.54
 195  0.125  0.458  0.292- 130 1.54 116 1.54 112 1.54 196 1.55
 196  0.208  0.542  0.375- 197 1.54  48 1.54 195 1.55  46 1.56
 197  0.125  0.625  0.458- 196 1.54 192 1.54 194 1.54 198 1.54
 198  0.209  0.708  0.541- 188 1.54 197 1.54 155 1.55   5 1.55
 199  0.959  0.458  0.792- 200 1.54  77 1.54 124 1.54  55 1.54
 200  0.042  0.542  0.875- 199 1.54 160 1.54 205 1.54 131 1.54
 201  0.792  0.625  0.792- 215 1.54  77 1.54  73 1.54  75 1.54
 202  0.959  0.625  0.625- 214 1.54  77 1.54 192 1.54  71 1.54
 203  0.126  0.458  0.625- 204 1.54 124 1.54 192 1.54 120 1.54
 204  0.209  0.541  0.708-   5 1.54  27 1.54 203 1.54 205 1.55
 205  0.126  0.625  0.791- 206 1.54 200 1.54 214 1.54 204 1.55
 206  0.209  0.708  0.875- 205 1.54 168 1.54  40 1.54 139 1.54
 207  0.292  0.791  0.125- 208 1.54 190 1.54  41 1.54 140 1.54
 208  0.375  0.875  0.208- 207 1.54 213 1.54 186 1.54 164 1.54
 209  0.292  0.958  0.958- 210 1.54 158 1.54 169 1.54 140 1.54
 210  0.375  0.041  0.041- 209 1.54 213 1.54 176 1.54 180 1.54
 211  0.458  0.792  0.958- 212 1.54  10 1.54 169 1.54  41 1.54
 212  0.541  0.875  0.041- 213 1.54 211 1.54  11 1.55  13 1.55
 213  0.458  0.958  0.124- 189 1.53 212 1.54 210 1.54 208 1.54
 214  0.042  0.708  0.708- 202 1.54 155 1.54 205 1.54 151 1.54
 215  0.875  0.709  0.875- 201 1.54  15 1.54 151 1.54 131 1.54
 

IMPORTANT INFORMATION: All symmetrisations will be switched off!
NOSYMM: (Re-)initialisation of all symmetry stuff for point group C_1.

 
 
 KPOINTS: Num irrep kpoints: 1                    

Automatic generation of k-mesh.
Space group operators:
 irot       det(A)        alpha          n_x          n_y          n_z        tau_x        tau_y        tau_z
    1     1.000000     0.000001     1.000000     0.000000     0.000000     0.000000     0.000000     0.000000
 
 Subroutine IBZKPT returns following result:
 ===========================================
 
 Found      1 irreducible k-points:
 
 Following reciprocal coordinates:
            Coordinates               Weight
  0.000000  0.000000  0.000000      1.000000
 
 Following cartesian coordinates:
            Coordinates               Weight
  0.000000  0.000000  0.000000      1.000000
 
 
 Subroutine IBZKPT_HF returns following result:
 ==============================================
 
 Found      1 k-points in 1st BZ
 the following      1 k-points will be used (e.g. in the exchange kernel)
 Following reciprocal coordinates:   # in IRBZ
  0.000000  0.000000  0.000000    1.00000000   1 t-inv F


--------------------------------------------------------------------------------------------------------




 Dimension of arrays:
   k-points           NKPTS =      1   k-points in BZ     NKDIM =      1   number of bands    NBANDS=    648
   number of dos      NEDOS =    301   number of ions     NIONS =    215
   non local maximal  LDIM  =      4   non local SUM 2l+1 LMDIM =      8
   total plane-waves  NPLWV = 216000
   max r-space proj   IRMAX =   1489   max aug-charges    IRDMAX=   2380
   dimension x,y,z NGX =    60 NGY =   60 NGZ =   60
   dimension x,y,z NGXF=   120 NGYF=  120 NGZF=  120
   support grid    NGXF=   120 NGYF=  120 NGZF=  120
   ions per type =               1 214
   NGX,Y,Z   is equivalent  to a cutoff of   9.34,  9.34,  9.34 a.u.
   NGXF,Y,Z  is equivalent  to a cutoff of  18.68, 18.68, 18.68 a.u.

 SYSTEM =  unknown system                          
 POSCAR =  x3                                      

 Startparameter for this run:
   NWRITE =      2    write-flag & timer
   PREC   = normal    normal or accurate (medium, high low for compatibility)
   ISTART =      1    job   : 0-new  1-cont  2-samecut
   ICHARG =      0    charge: 1-file 2-atom 10-const
   ISPIN  =      2    spin polarized calculation?
   LNONCOLLINEAR =      F non collinear calculations
   LSORBIT =      F    spin-orbit coupling
   INIWAV =      1    electr: 0-lowe 1-rand  2-diag
   LASPH  =      T    aspherical Exc in radial PAW
   METAGGA=      F    non-selfconsistent MetaGGA calc.

 Electronic Relaxation 1
   ENCUT  =  520.0 eV  38.22 Ry    6.18 a.u.  19.86 19.86 19.86*2*pi/ulx,y,z
   ENINI  =  520.0     initial cutoff
   ENAUG  =  644.9 eV  augmentation charge cutoff
   NELM   =    200;   NELMIN=  2; NELMDL=  0     # of ELM steps 
   EDIFF  = 0.1E-04   stopping-criterion for ELM
   LREAL  =      T    real-space projection
   NLSPLINE    = F    spline interpolate recip. space projectors
   LCOMPAT=      F    compatible to vasp.4.4
   GGA_COMPAT  = T    GGA compatible to vasp.4.4-vasp.4.6
   LMAXPAW     = -100 max onsite density
   LMAXMIX     =    2 max onsite mixed and CHGCAR
   VOSKOWN=      0    Vosko Wilk Nusair interpolation
   ROPT   =   -0.00050  -0.00050
 Ionic relaxation
   EDIFFG = -.1E-01   stopping-criterion for IOM
   NSW    =    500    number of steps for IOM
   NBLOCK =      1;   KBLOCK =    500    inner block; outer block 
   IBRION =      2    ionic relax: 0-MD 1-quasi-New 2-CG
   NFREE  =      1    steps in history (QN), initial steepest desc. (CG)
   ISIF   =      2    stress and relaxation
   IWAVPR =     11    prediction:  0-non 1-charg 2-wave 3-comb
   ISYM   =     -1    0-nonsym 1-usesym 2-fastsym
   LCORR  =      T    Harris-Foulkes like correction to forces

   POTIM  = 0.5000    time-step for ionic-motion
   TEIN   =    0.0    initial temperature
   TEBEG  =    0.0;   TEEND  =   0.0 temperature during run
   SMASS  =  -3.00    Nose mass-parameter (am)
   estimated Nose-frequenzy (Omega)   =  0.10E-29 period in steps =****** mass=  -0.261E-26a.u.
   SCALEE = 1.0000    scale energy and forces
   NPACO  =    256;   APACO  = 16.0  distance and # of slots for P.C.
   PSTRESS=    0.0 pullay stress

  Mass of Ions in am
   POMASS =  14.00 12.01
  Ionic Valenz
   ZVAL   =   5.00  4.00
  Atomic Wigner-Seitz radii
   RWIGS  =  -1.00 -1.00
  virtual crystal weights 
   VCA    =   1.00  1.00
   NELECT =     862.0000    total number of electrons
   NUPDOWN=      -1.0000    fix difference up-down

 DOS related values:
   EMIN   =  10.00;   EMAX   =-10.00  energy-range for DOS
   EFERMI =   0.00
   ISMEAR =    -2;   SIGMA  =   0.10  broadening in eV -4-tet -1-fermi 0-gaus

 Electronic relaxation 2 (details)
   IALGO  =     53    algorithm
   LDIAG  =      F    sub-space diagonalisation (order eigenvalues)
   LSUBROT=      F    optimize rotation matrix (better conditioning)
   TURBO    =      0    0=normal 1=particle mesh
   IRESTART =      0    0=no restart 2=restart with 2 vectors
   NREBOOT  =      0    no. of reboots
   NMIN     =      0    reboot dimension
   EREF     =   0.00    reference energy to select bands
   IMIX   =      4    mixing-type and parameters
     AMIX     =   0.40;   BMIX     =  1.00
     AMIX_MAG =   1.60;   BMIX_MAG =  1.00
     AMIN     =   0.10
     WC   =   100.;   INIMIX=   1;  MIXPRE=   1;  MAXMIX= -45

 Intra band minimization:
   WEIMIN = 0.0010     energy-eigenvalue tresh-hold
   EBREAK =  0.39E-08  absolut break condition
   DEPER  =   0.30     relativ break condition  

   TIME   =   0.20     timestep for ELM

  volume/ion in A,a.u.               =       5.67        38.26
  Fermi-wavevector in a.u.,A,eV,Ry     =   1.458529  2.756220 28.943770  2.127307
  Thomas-Fermi vector in A             =   2.575203
 
 Write flags
   LWAVE        =      T    write WAVECAR
   LDOWNSAMPLE  =      F    k-point downsampling of WAVECAR
   LCHARG       =      T    write CHGCAR
   LVTOT        =      F    write LOCPOT, total local potential
   LVHAR        =      F    write LOCPOT, Hartree potential only
   LELF         =      F    write electronic localiz. function (ELF)
   LORBIT       =     11    0 simple, 1 ext, 2 COOP (PROOUT), +10 PAW based schemes


 Dipole corrections
   LMONO  =      F    monopole corrections only (constant potential shift)
   LDIPOL =      F    correct potential (dipole corrections)
   IDIPOL =      0    1-x, 2-y, 3-z, 4-all directions 
   EPSILON=  1.0000000 bulk dielectric constant

 Exchange correlation treatment:
   GGA     =    --    GGA type
   LEXCH   =     8    internal setting for exchange type
   VOSKOWN=      0    Vosko Wilk Nusair interpolation
   EXXOEP  =     0    0=HF, 1=EXX-LHF (local Hartree Fock) 2=EXX OEP
   LHFCALC =     T    Hartree Fock is set to
   LSYMGRAD=     F    symmetrize gradient (conserves proper symmetry)
   PRECFOCK=normal    Normal, Fast or Accurate (Low or Medium for compatibility)
   LRHFCALC=     F    long range Hartree Fock
   LRSCOR  =     F    long range correlation only (use DFT for short range part)
   LTHOMAS =     F    Thomas Fermi screening in HF
   LMODELHF=     F    short range full HF, long range fraction AEXX
   ENCUT4O =  -1.0   cutoff for four orbital integrals eV
   LMAXFOCK=     4    L truncation for augmentation on plane wave grid
   LMAXFOCKAE=  -1    L truncation for all-electron charge restoration on plane wave grid
   NMAXFOCKAE=   1    number of basis functions for all-electron charge restoration
   LFOCKAEDFT=     F  apply the AE augmentation even for DFT
   NKREDX  =     1    reduce k-point grid by
   NKREDY  =     1    reduce k-point grid by
   NKREDZ  =     1    reduce k-point grid by
   SHIFTRED=     F    shift reduced grid of Gamma
   HFKIDENT=     F    idential grid for each k-point
   ODDONLY =     F    use only odd q-grid points
   EVENONLY=     F    use only even q-grid points
   HFALPHA =   -1.0000 decay constant for conv. correction
   MCALPHA =    0.0000 extent of test-charge in conv. correction in multipole expansion
   AEXX    =    0.2500 exact exchange contribution
   HFSCREEN=    0.2000 screening length (either q_TF or 0.3 A-1)
   HFSCREENC=   0.2000 screening length for correlation (either q_TF or 0.3 A-1)
   HFRCUT  =    0.0000 spherical cutoff for potential kernel
   ALDAX   =    0.7500 LDA exchange part
   AGGAX   =    0.7500 GGA exchange part
   ALDAC   =    1.0000 LDA correlation
   AGGAC   =    1.0000 GGA correlation
   ENCUTFOCK=  -1.0 apply spherical cutoff to Coloumb kernel
   NBANDSGWLOW=     1    first orbital included in HF term
   NBLOCK_FOCK=    64    blocking factor in FOCK_ACC
 Linear response parameters
   LEPSILON=     F    determine dielectric tensor
   LRPA    =     F    only Hartree local field effects (RPA)
   LNABLA  =     F    use nabla operator in PAW spheres
   LVEL    =     F    velocity operator in full k-point grid
   LINTERFAST=   F  fast interpolation
   KINTER  =     0    interpolate to denser k-point grid
   CSHIFT  =0.1000    complex shift for real part using Kramers Kronig
   OMEGAMAX=  -1.0    maximum frequency
   DEG_THRESHOLD= 0.2000000E-02 threshold for treating states as degnerate
   RTIME   =   -0.100 relaxation time in fs
  (WPLASMAI=    0.000 imaginary part of plasma frequency in eV, 0.658/RTIME)
   DFIELD  = 0.0000000 0.0000000 0.0000000 field for delta impulse in time
 
 Orbital magnetization related:
   ORBITALMAG=     F  switch on orbital magnetization
   LCHIMAG   =     F  perturbation theory with respect to B field
   DQ        =  0.001000  dq finite difference perturbation B field
   LLRAUG    =     F  two centre corrections for induced B field



--------------------------------------------------------------------------------------------------------


 conjugate gradient relaxation of ions
 charge density and potential will be updated during run
 spin polarized calculation
 Conjugate gradient for all bands (Kresse, et al. variant)
 perform Loewdin sub-space diagonalisation
    ordering is kept fixed
    before iterative eigenvector-optimisation
 modified Broyden-mixing scheme, WC =      100.0
 initial mixing is a Kerker type mixing with AMIX =  0.4000 and BMIX =      1.0000
 Hartree-type preconditioning will be used
 using additional bands          217
 real space projection scheme for non local part
 no Harris-corrections to forces 
 use gradient corrections 
 use of overlap-Matrix (Vanderbilt PP)
 partial occupancies read from INCAR or WAVECAR (fixed during run)


--------------------------------------------------------------------------------------------------------


  energy-cutoff  :      520.00
  volume of cell :     1218.95
      direct lattice vectors                 reciprocal lattice vectors
    10.682237625  0.000000000  0.000000000     0.093613345  0.000000012  0.000000012
    -0.000001422 10.682234764  0.000000000     0.000000000  0.093613370  0.000000075
    -0.000001422 -0.000008535 10.682234764     0.000000000  0.000000000  0.093613370

  length of vectors
    10.682237625 10.682234764 10.682234764     0.093613345  0.093613370  0.093613370


 
 old parameters found on file WAVECAR:
  energy-cutoff  :      520.00
  volume of cell :     1218.95
      direct lattice vectors                 reciprocal lattice vectors
    10.682237625  0.000000000  0.000000000     0.093613345  0.000000012  0.000000012
    -0.000001422 10.682234764  0.000000000     0.000000000  0.093613370  0.000000075
    -0.000001422 -0.000008535 10.682234764     0.000000000  0.000000000  0.093613370

  length of vectors

 
 k-points in units of 2pi/SCALE and weight: Num irrep kpoints: 1                    
   0.00000000  0.00000000  0.00000000       1.000
 
 k-points in reciprocal lattice and weights: Num irrep kpoints: 1                    
   0.00000000  0.00000000  0.00000000       1.000
 
 position of ions in fractional coordinates (direct lattice) 
   0.55024915  0.38358294  0.55024911
   0.95820978  0.79154385  0.12507508
   0.37544211  0.54159737  0.87486908
   0.29166478  0.12499887  0.79127762
   0.29284963  0.62393049  0.62471362
   0.37544200  0.70820292  0.70826318
   0.46259384  0.45832875  0.62499514
   0.54227245  0.54311090  0.70977695
   0.45886408  0.62565309  0.79231909
   0.54189919  0.70875619  0.87542207
   0.62487922  0.79139600  0.12534200
   0.70807985  0.87486911  0.20848390
   0.62487921  0.95867609  0.95806188
   0.70807996  0.04181809  0.04153493
   0.79165443  0.79186814  0.95853379
   0.87488184  0.87507576  0.04174150
   0.79135121  0.95835590  0.12502169
   0.87468137  0.04163229  0.20829816
   0.62489146  0.79181339  0.45845464
   0.70820964  0.87537223  0.54168087
   0.62465206  0.95824243  0.29156620
   0.70840920  0.04133162  0.37524403
   0.79143524  0.79151943  0.29183193
   0.87491906  0.87484595  0.37509183
   0.79161374  0.95831296  0.45818223
   0.87441527  0.04223327  0.54146982
   0.29284958  0.45804768  0.79059693
   0.62516187  0.79220065  0.79182505
   0.54186812  0.70845927  0.54186811
   0.54094691  0.53997696  0.37669550
   0.37504547  0.20837956  0.87456593
   0.29288072  0.29070149  0.62323042
   0.37669547  0.37428077  0.70664377
   0.45736742  0.12621511  0.62322999
   0.54094676  0.21002958  0.70664350
   0.45852110  0.29185516  0.79112392
   0.54186823  0.37520235  0.87512554
   0.29156639  0.45798589  0.12490857
   0.37524435  0.54174268  0.20799788
   0.29183205  0.62476937  0.95818557
   0.37509192  0.70825301  0.04151215
   0.45845478  0.45822564  0.95847954
   0.54168116  0.54154378  0.04203826
   0.45818245  0.62494753  0.12497917
   0.54146988  0.70774918  0.20889929
   0.29288118  0.45656349  0.45736779
   0.37669552  0.53997694  0.54094689
   0.29166512  0.62461092  0.29166512
   0.37504558  0.70789944  0.37504557
   0.45736783  0.45656349  0.29288117
   0.45852117  0.62445728  0.45852116
   0.54492336  0.20239410  0.36905986
   0.70831491  0.87547383  0.87498861
   0.70787547  0.04245458  0.70787547
   0.87542209  0.37523352  0.87542209
   0.62451974  0.45785357  0.12576446
   0.70787573  0.54120961  0.20912042
   0.62516194  0.62515928  0.95886653
   0.70831502  0.70832292  0.04213963
   0.79182522  0.45849618  0.95886648
   0.87498876  0.54164929  0.04213966
   0.79145526  0.62478938  0.12558290
   0.87482643  0.70816049  0.20860803
   0.62499518  0.45832878  0.46259382
   0.70977695  0.54311091  0.54227245
   0.62471364  0.62393050  0.29284961
   0.70826318  0.70820293  0.37544199
   0.79059693  0.45804769  0.29284957
   0.87486909  0.54159737  0.37544211
   0.79231909  0.62565309  0.45886409
   0.87542207  0.70875619  0.54189919
   0.62567316  0.45900720  0.79260342
   0.70877097  0.54210519  0.87572241
   0.62567307  0.62593732  0.62567309
   0.70877086  0.70905650  0.70877087
   0.79260341  0.45900720  0.62567317
   0.87572241  0.54210519  0.70877098
   0.79231904  0.29219826  0.79231905
   0.62451941  0.95909865  0.62451941
   0.87486892  0.20877626  0.70826321
   0.70977688  0.37560665  0.70977688
   0.79182504  0.79220065  0.62516188
   0.87498861  0.87547383  0.70831492
   0.79145508  0.95891718  0.79145509
   0.87482629  0.04194227  0.87482629
   0.62465217  0.12490028  0.12490831
   0.70840955  0.20857810  0.20799747
   0.62489170  0.29178877  0.95847939
   0.70820992  0.37501509  0.04203817
   0.79143532  0.12516624  0.95818529
   0.87491908  0.20842605  0.04151187
   0.79161401  0.29151651  0.12497886
   0.87441550  0.37480407  0.20889921
   0.62322999  0.12621513  0.45736739
   0.70664350  0.21002959  0.54094675
   0.62323042  0.29070149  0.29288073
   0.70664378  0.37428079  0.37669546
   0.79127762  0.12499888  0.29166479
   0.87456594  0.20837956  0.37504547
   0.79112392  0.29185516  0.45852111
   0.87512554  0.37520235  0.54186823
   0.62471355  0.12618371  0.79059666
   0.70826320  0.20877626  0.87486893
   0.62499515  0.29592774  0.62499513
   0.79059665  0.12618371  0.62471355
   0.45858665  0.12487562  0.29154154
   0.36906041  0.37825598  0.36906038
   0.29154166  0.29192021  0.29154165
   0.12489342  0.12489351  0.95805679
   0.20815660  0.20816007  0.04131221
   0.12432256  0.29154251  0.12432255
   0.20730623  0.37427356  0.20730622
   0.95802293  0.12514174  0.45819931
   0.04167970  0.20835024  0.54142169
   0.95802309  0.29153334  0.29180778
   0.04167983  0.37475554  0.37501640
   0.12490265  0.12495621  0.29162218
   0.20849766  0.20810971  0.37477589
   0.12538099  0.29137939  0.45804570
   0.20921871  0.37439573  0.54106246
   0.95818528  0.12516624  0.79143533
   0.04151187  0.20842605  0.87491908
   0.95847938  0.29178877  0.62489170
   0.04203817  0.37501509  0.70820993
   0.12490829  0.12490027  0.62465217
   0.20799746  0.20857809  0.70840955
   0.12497886  0.29151650  0.79161401
   0.20889922  0.37480406  0.87441550
   0.95806212  0.45821342  0.12534200
   0.04153522  0.54141397  0.20848412
   0.95853392  0.62498870  0.95853392
   0.04138535  0.37481318  0.04138534
   0.04174166  0.70821600  0.04174165
   0.95830126  0.29170477  0.95830126
   0.95805679  0.12489352  0.12489341
   0.04152804  0.87486194  0.20828460
   0.95820967  0.95840937  0.95820968
   0.04152793  0.04161869  0.04152792
   0.12507507  0.79154385  0.95820978
   0.20828460  0.87486193  0.04152803
   0.12487552  0.95820960  0.12487552
   0.20818652  0.04152053  0.20818651
   0.95830125  0.79163522  0.45837047
   0.04138528  0.87471934  0.54147885
   0.95805677  0.95822750  0.29155931
   0.04131219  0.04149052  0.37482591
   0.12489366  0.79139065  0.29155944
   0.20815665  0.87464616  0.37482598
   0.12432256  0.95765655  0.45820844
   0.20730600  0.04064011  0.54093976
   0.95853378  0.79186813  0.79165443
   0.04174150  0.87507576  0.87488184
   0.95806187  0.95867608  0.62487922
   0.04153493  0.04181808  0.70807997
   0.12534200  0.79139599  0.62487923
   0.20848390  0.87486910  0.70807986
   0.12502169  0.95835590  0.79135122
   0.20829817  0.04163229  0.87468137
   0.04131222  0.20816008  0.20815660
   0.12534201  0.45821342  0.95806213
   0.20848412  0.54141397  0.04153521
   0.12502190  0.62468522  0.12502190
   0.37477581  0.04183186  0.37477582
   0.45819926  0.79135679  0.29180782
   0.54142152  0.87501372  0.37501621
   0.45804549  0.95871517  0.45804549
   0.54106203  0.04255281  0.54106202
   0.29183193  0.79151942  0.79143525
   0.37509183  0.87484595  0.87491906
   0.29156620  0.95824242  0.62465206
   0.37524404  0.04133161  0.70840920
   0.45845464  0.79181339  0.62489146
   0.54168086  0.87537224  0.70820964
   0.45818223  0.95831296  0.79161374
   0.54146982  0.04223327  0.87441527
   0.29162217  0.12495621  0.12490265
   0.37477589  0.20810971  0.20849766
   0.29180778  0.29153334  0.95802309
   0.37501640  0.37475554  0.04167982
   0.45819931  0.12514174  0.95802294
   0.54142169  0.20835025  0.04167970
   0.45804570  0.29137939  0.12538099
   0.54106248  0.37439573  0.20921870
   0.29154151  0.12487558  0.45858667
   0.36905980  0.20239402  0.54492341
   0.29162223  0.95823677  0.29162223
   0.37501621  0.87501372  0.54142152
   0.29180783  0.79135679  0.45819926
   0.54093975  0.04064014  0.20730602
   0.20829845  0.70801509  0.20829844
   0.95847953  0.45822564  0.45845478
   0.04203827  0.54154379  0.54168116
   0.95818557  0.62476937  0.29183205
   0.04151215  0.70825301  0.37509192
   0.12490856  0.45798590  0.29156638
   0.20799788  0.54174268  0.37524434
   0.12497917  0.62494753  0.45818244
   0.20889930  0.70774917  0.54146987
   0.95886648  0.45849618  0.79182523
   0.04213966  0.54164929  0.87498876
   0.79208785  0.62542207  0.79208786
   0.95886652  0.62515928  0.62516195
   0.12576447  0.45785357  0.62451974
   0.20912043  0.54120959  0.70787572
   0.12558290  0.62478937  0.79145526
   0.20860804  0.70816048  0.87482643
   0.29155945  0.79139065  0.12489365
   0.37482599  0.87464616  0.20815664
   0.29155932  0.95822750  0.95805677
   0.37482592  0.04149052  0.04131218
   0.45837047  0.79163523  0.95830126
   0.54147885  0.87471935  0.04138528
   0.45820845  0.95765657  0.12432258
   0.04213963  0.70832291  0.70831503
   0.87526014  0.70859445  0.87526015
 
 position of ions in cartesian coordinates  (Angst):
   5.87789084  4.09751835  5.87789020
  10.23582324  8.45545618  1.33608134
   4.01055986  5.78546276  9.34555695
   3.11563121  1.33526053  8.45261329
   3.12828757  6.66496661  6.67333760
   4.01055869  7.56518377  7.56583355
   4.94153581  4.89596999  6.67634481
   5.79268137  5.80163208  7.58200401
   4.90169314  6.68336643  8.46373857
   5.78869361  7.57109254  9.35146405
   6.67510701  8.45387680  1.33893269
   7.56387567  9.34555542  2.22707392
   6.67510546 10.24079486 10.23424196
   7.56387831  0.44671025  0.44368589
   8.45663821  8.45891316 10.23928300
   9.34569442  9.34776437  0.44589248
   8.45340009 10.23738166  1.33551103
   9.34355391  0.44472415  2.22508987
   6.67523725  8.45833263  4.89732011
   7.56526164  9.35092709  5.78636223
   6.67267997 10.23616816  3.11457860
   7.56739484  0.44151086  4.00844486
   8.45429777  8.45519386  3.11741718
   9.34609152  9.34530662  4.00681894
   8.45620405 10.23692015  4.89441016
   9.34071083  0.45114106  5.78410770
   3.12828700  4.89296613  8.44534198
   6.67812536  8.46246661  8.45846113
   5.78836220  7.56792360  5.78836241
   5.77852209  5.76815746  4.02394981
   4.00632329  2.22595190  9.34231861
   3.12862012  3.10533622  6.65749370
   4.02394893  3.99814904  7.54853469
   4.88570635  1.34825411  6.65748905
   5.77852050  2.24357930  7.54853174
   4.89802983  3.11765855  8.45097143
   5.78836336  4.00799216  9.34829648
   3.11458061  4.89231176  1.33430262
   4.00844825  5.78702072  2.22188221
   3.11741702  6.67392486 10.23556318
   4.00681996  7.56572457  0.44344254
   4.89732084  4.89486568 10.23870342
   5.78636606  5.78489747  0.44906261
   4.89441271  6.67583512  1.33505684
   5.78410865  7.56034111  2.23151127
   3.12862506  4.87711448  4.88571012
   4.02394951  5.76815586  5.77852170
   3.11563482  6.67223796  3.11563526
   4.00632447  7.56194479  4.00632487
   4.88571073  4.87711587  3.12862542
   4.89803056  6.67059538  4.89803070
   5.82100000  2.16201815  3.94238406
   7.56638570  9.35200952  9.34683376
   7.56169289  0.45350378  7.56169200
   9.35146497  4.00832504  9.35146425
   6.67126745  4.89089826  1.34344549
   7.56169564  5.78132630  2.23387341
   6.67812616  6.67809003 10.24283736
   7.56638833  7.56647131  0.45014539
   8.45846319  4.89775568 10.24283690
   9.34683707  5.78602456  0.45014569
   8.45451211  6.67414571  1.34150599
   9.34510250  7.56473481  2.22839995
   6.67634567  4.89597167  4.94153580
   7.58200449  5.80163365  5.79268163
   6.67333820  6.66496960  3.12828833
   7.56583406  7.56518671  4.01055953
   8.44534325  4.89297051  3.12828785
   9.34555818  5.78546706  4.01056073
   8.46373921  6.68336932  4.90169391
   9.35146475  7.57109540  5.78869437
   6.68358757  4.90321590  8.46677582
   7.57125795  5.79088740  9.35467240
   6.68358667  6.68640403  6.68358683
   7.57125675  7.57430197  7.57125685
   8.46677644  4.90321730  6.68358771
   9.35467306  5.79088884  7.57125804
   8.46373872  3.12132364  8.46373808
   6.67126245 10.24531164  6.67126295
   9.34555641  2.23019098  7.56583385
   7.58200375  4.01231235  7.58200331
   8.45846125  8.46246800  6.67812597
   9.34683397  9.35201091  7.56638623
   8.45450871 10.24337172  8.45450903
   9.34510097  0.44802973  9.34509980
   6.67268253  1.33421305  1.33429990
   7.56739858  2.22807844  2.22187782
   6.67523981  3.11694799 10.23870187
   7.56526611  4.00599891  0.44906159
   8.45429858  1.33704697 10.23556021
   9.34609313  2.22645569  0.44343957
   8.45620833  3.11404671  1.33505356
   9.34071332  4.00374324  2.23151041
   6.65748999  1.34825573  4.88570582
   7.54853276  2.24358075  5.77852022
   6.65749462  3.10533911  3.12862075
   7.54853575  3.99815201  4.02394933
   8.45261496  1.33526490  3.11563175
   9.34232032  2.22595621  4.00632372
   8.45097260  3.11766147  4.89803009
   9.34829771  4.00799500  5.78836360
   6.67333727  1.34791723  8.44533912
   7.56583429  2.23018953  9.34555525
   6.67634543  3.16116427  6.67634472
   8.44534024  1.34791869  6.67333678
   4.89873098  1.33394818  3.11431516
   3.94238990  4.04061598  3.94238960
   3.11431647  3.11835777  3.11431637
   1.33413962  1.33413366 10.23418751
   2.22357789  2.22361443  0.44130671
   1.32804255  3.11432448  1.32804271
   2.21449357  3.99807622  2.21449371
  10.23382779  1.33678949  4.89459259
   0.44523140  2.22564159  5.78359358
  10.23382947  3.11422513  3.11715919
   0.44523275  4.00322344  4.00601321
   1.33423920  1.33480910  3.11517654
   2.22722067  2.22307361  4.00344402
   1.33934845  3.11257912  4.89295168
   2.23492264  3.99937843  5.77975622
  10.23556159  1.33704837  8.45429796
   0.44343813  2.22644855  9.34609100
  10.23870324  3.11695083  6.67523986
   0.44906019  4.00599318  7.56526470
   1.33429898  1.33420863  6.67268117
   2.22187701  2.22807409  7.56739715
   1.33505231  3.11404096  8.45620672
   2.23150935  4.00373748  9.34071162
  10.23424645  4.89474230  1.33893271
   0.44368799  5.78350936  2.22707631
  10.23928482  6.67626786 10.23928433
   0.44208754  4.00384204  0.44208796
   0.44589321  7.56532926  0.44589412
  10.23679996  3.11605071 10.23679906
  10.23418991  1.33414079  1.33414078
   0.44361081  9.34547881  2.22494496
  10.23582071 10.23794568 10.23582074
   0.44361110  0.44458022  0.44361104
   1.33607918  8.45544906 10.23582183
   2.22494432  9.34548021  0.44361215
   1.33394841 10.23581885  1.33394960
   2.22389755  0.44353026  2.22389722
  10.23679986  8.45642937  4.89642100
   0.44208535  9.34395268  5.78420418
  10.23418832 10.23600860  3.11450504
   0.44130601  0.44320832  4.00397837
   1.33414218  8.45381824  3.11450642
   2.22357698  9.34317240  4.00397916
   1.32804115 10.22990815  4.89469015
   2.21449109  0.43412257  5.77844548
  10.23928341  8.45891450  8.45663852
   0.44589014  9.34775722  9.34569321
  10.23424232 10.24079765  6.67510650
   0.44368491  0.44670451  7.56387648
   1.33893103  8.45387240  6.67510660
   2.22707231  9.34555103  7.56387529
   1.33550887 10.23737592  8.45339947
   2.22508921  0.44471844  9.34355170
   0.44130633  2.22361302  2.22357762
   1.33893109  4.89473516 10.23424456
   2.22707613  5.78351080  0.44368889
   1.33551261  6.67303314  1.33551331
   4.00344368  0.44685459  4.00344327
   4.89459188  8.45345657  3.11715968
   5.78359160  9.34709882  4.00601123
   4.89294879 10.24121660  4.89294950
   5.77975232  0.45455447  5.77975151
   3.11741578  8.45518951  8.45429712
   4.00681754  9.34530236  9.34609075
   3.11457715 10.23616516  6.67268000
   4.00844490  0.44150791  7.56739338
   4.89731941  8.45833121  6.67523726
   5.78636146  9.35092570  7.56526162
   4.89440893 10.23691730  8.45620384
   5.78410797  0.45113822  9.34070920
   3.11517699  1.33481049  1.33423947
   4.00344447  2.22307502  2.22722095
   3.11715831  3.11421941 10.23382754
   4.00601374  4.00322627  0.44523362
   4.89459238  1.33678523 10.23382593
   5.78359478  2.22564589  0.44523233
   4.89295241  3.11258198  1.33934922
   5.77975711  3.99938130  2.23492322
   3.11431483  1.33394634  4.89873047
   3.94238340  2.16201575  5.82099974
   3.11517621 10.23610766  3.11517716
   4.00601027  9.34709734  5.78359183
   3.11715877  8.45345512  4.89459204
   5.77844664  0.43412573  2.21449153
   2.22509225  7.56318167  2.22509287
  10.23870482  4.89486998  4.89732156
   0.44906121  5.78489323  5.78636536
  10.23556461  6.67393057  3.11741844
   0.44344111  7.56572176  4.00681991
   1.33430188  4.89231036  3.11458050
   2.22188152  5.78701931  4.00844813
   1.33505561  6.67583228  4.89441244
   2.23151022  7.56033816  5.78410831
  10.24283777  4.89775706  8.45846305
   0.45014385  5.78601743  9.34683539
   8.46126865  6.68089858  8.46126851
  10.24283821  6.67809285  6.67812675
   1.34344440  4.89089395  6.67126648
   2.23387237  5.78132190  7.56169462
   1.34150438  6.67413994  8.45451092
   2.22839836  7.56472905  9.34510127
   3.11450599  8.45381970  1.33414334
   4.00397877  9.34317385  2.22357810
   3.11450318 10.23600290 10.23418737
   4.00397941  0.44321111  0.44130643
   4.89641980  8.45642515 10.23679899
   5.78420449  9.34395706  0.44208730
   4.89468999 10.22991120  1.32804296
   0.45014352  7.56646556  7.56638743
   9.34973459  7.56936476  9.34973436
 


--------------------------------------------------------------------------------------------------------


 k-point  1 :   0.0000 0.0000 0.0000  plane waves:   32795

 maximum and minimum number of plane-waves per node :      1372     1363

 maximum number of plane-waves:     32795
 maximum index in each direction: 
   IXMAX=   19   IYMAX=   19   IZMAX=   19
   IXMIN=  -19   IYMIN=  -19   IZMIN=  -19


 real space projection operators:
  total allocation   :       9743.19 KBytes
  max/ min on nodes  :        517.62        297.25


 parallel 3D FFT for wavefunctions:
    minimum data exchange during FFTs selected (reduces bandwidth)
 parallel 3D FFT for charge:
    minimum data exchange during FFTs selected (reduces bandwidth)

 
 Radii for the augmentation spheres in the non-local exchange
 for species   1 augmentation radius   0.801 (default was   0.709)
       energy cutoff for augmentation   2080.0
 for species   2 augmentation radius   0.795 (default was   0.699)
       energy cutoff for augmentation   2080.0

 real space projection operators:
  total allocation   :       5457.94 KBytes
  max/ min on nodes  :        304.31        152.44

 Maximum index for augmentation-charges in exchange           60
  SETUP_FOCK is finished

 total amount of memory used by VASP MPI-rank0    88951. kBytes
=======================================================================

   base      :      30000. kBytes
   nonlr-proj:       7567. kBytes
   fftplans  :       2099. kBytes
   grid      :       4371. kBytes
   one-center:         55. kBytes
   HF        :          9. kBytes
   wavefun   :      44850. kBytes
 
     INWAV:  cpu time    1.6638: real time    2.8892
 Broyden mixing: mesh for mixing (old mesh)
   NGX = 39   NGY = 39   NGZ = 39
  (NGX  =120   NGY  =120   NGZ  =120)
  gives a total of  59319 points

 charge density for first step will be calculated from the start-wavefunctions


--------------------------------------------------------------------------------------------------------


 Maximum index for non-local projection operator           96
 Maximum index for augmentation-charges          189 (set IRDMAX)


--------------------------------------------------------------------------------------------------------


 initial charge from wavefunction
 First call to EWALD:  gamma=   0.166
 Maximum number of real-space cells 3x 3x 3
 Maximum number of reciprocal cells 3x 3x 3

    FEWALD:  cpu time    0.0063: real time    0.0063

 ----------------------------------------------------------------------------- 
|                                                                             |
|           W    W    AA    RRRRR   N    N  II  N    N   GGGG   !!!           |
|           W    W   A  A   R    R  NN   N  II  NN   N  G    G  !!!           |
|           W    W  A    A  R    R  N N  N  II  N N  N  G       !!!           |
|           W WW W  AAAAAA  RRRRR   N  N N  II  N  N N  G  GGG   !            |
|           WW  WW  A    A  R   R   N   NN  II  N   NN  G    G                |
|           W    W  A    A  R    R  N    N  II  N    N   GGGG   !!!           |
|                                                                             |
|      ALGO=A and IALGO=5X tend to fail with the tetrahedron method           |
|      (e.g. Bloechls method ISMEAR=-5 is not variational)                    |
|      please switch to IMSEAR=0-n, except for DOS calculations               |
|      For DOS calculations use IALGO=53 after preconverging with ISMEAR>=0   |
|          I HOPE YOU KNOW, WHAT YOU ARE  DOING                               |
|                                                                             |
 ----------------------------------------------------------------------------- 



--------------------------------------- Iteration      1(   1)  ---------------------------------------


    POTLOK:  cpu time    0.1238: real time    0.1267
    SETDIJ:  cpu time    1.5540: real time    1.5603
    TRIAL :  cpu time  192.7309: real time  193.3283
    CORREC:  cpu time    0.0072: real time    0.0072
    CHARGE:  cpu time    0.0510: real time    0.0511
    --------------------------------------------
      LOOP:  cpu time  194.4960: real time  195.1045

 eigenvalue-minimisations  :     0
 total energy-change (2. order) :-0.2401143E+04  (-0.7641429E-01)
 number of electron     861.9999060 magnetization       2.0000001
 augmentation part       20.3897679 magnetization       0.1228076

 Free energy of the ion-electron system (eV)
  ---------------------------------------------------
  alpha Z        PSCENC =      3094.29412155
  Ewald energy   TEWEN  =    -37394.15654066
  -Hartree energ DENC   =     -2917.06704995
  -exchange      EXHF   =      1987.09416550
  -V(xc)+E(xc)   XCENC  =      2444.20117424
  PAW double counting   =     14836.85917972   -15035.89602367
  entropy T*S    EENTRO =         0.00000000
  eigenvalues    EBANDS =      -637.33624724
  atomic energy  EATOM  =     31220.86432716
  ---------------------------------------------------
  free energy    TOTEN  =     -2401.14289335 eV

  energy without entropy =    -2401.14289335  energy(sigma->0) =    -2401.14289335
  exchange ACFDT corr.  =        -0.51338416  see jH, gK, PRB 81, 115126


--------------------------------------------------------------------------------------------------------




--------------------------------------- Iteration      1(   2)  ---------------------------------------


    POTLOK:  cpu time    0.1208: real time    0.1224
    SETDIJ:  cpu time    1.5557: real time    1.5601
    TRIAL :  cpu time  191.1083: real time  191.6949
    CORREC:  cpu time    0.0072: real time    0.0072
    CHARGE:  cpu time    0.0513: real time    0.0515
    --------------------------------------------
      LOOP:  cpu time  192.8443: real time  193.4384

 eigenvalue-minimisations  :     0
 total energy-change (2. order) :-0.6468082E-01  (-0.6316321E-01)
 number of electron     861.9999060 magnetization       2.0000001
 augmentation part       20.3919174 magnetization       0.1234244

 Free energy of the ion-electron system (eV)
  ---------------------------------------------------
  alpha Z        PSCENC =      3094.29412155
  Ewald energy   TEWEN  =    -37394.15654066
  -Hartree energ DENC   =     -2917.51995745
  -exchange      EXHF   =      1987.10623422
  -V(xc)+E(xc)   XCENC  =      2444.21465195
  PAW double counting   =     14837.45712303   -15036.49513663
  entropy T*S    EENTRO =         0.00000000
  eigenvalues    EBANDS =      -636.97239734
  atomic energy  EATOM  =     31220.86432716
  ---------------------------------------------------
  free energy    TOTEN  =     -2401.20757416 eV

  energy without entropy =    -2401.20757416  energy(sigma->0) =    -2401.20757416
  exchange ACFDT corr.  =        -0.51320148  see jH, gK, PRB 81, 115126


--------------------------------------------------------------------------------------------------------




--------------------------------------- Iteration      1(   3)  ---------------------------------------


    POTLOK:  cpu time    0.1193: real time    0.1273
    SETDIJ:  cpu time    1.5568: real time    1.5629
    TRIAL :  cpu time  191.2202: real time  191.8169
    CORREC:  cpu time    0.0072: real time    0.0072
    CHARGE:  cpu time    0.0513: real time    0.0514
    --------------------------------------------
      LOOP:  cpu time  192.9557: real time  193.5732

 eigenvalue-minimisations  :     0
 total energy-change (2. order) :-0.4745982E-01  (-0.2661492E-01)
 number of electron     861.9999060 magnetization       2.0000001
 augmentation part       20.3933621 magnetization       0.1239760

 Free energy of the ion-electron system (eV)
  ---------------------------------------------------
  alpha Z        PSCENC =      3094.29412155
  Ewald energy   TEWEN  =    -37394.15654066
  -Hartree energ DENC   =     -2918.00376306
  -exchange      EXHF   =      1987.11612466
  -V(xc)+E(xc)   XCENC  =      2444.22712123
  PAW double counting   =     14838.07456748   -15037.11321701
  entropy T*S    EENTRO =         0.00000000
  eigenvalues    EBANDS =      -636.55777534
  atomic energy  EATOM  =     31220.86432716
  ---------------------------------------------------
  free energy    TOTEN  =     -2401.25503399 eV

  energy without entropy =    -2401.25503399  energy(sigma->0) =    -2401.25503399
  exchange ACFDT corr.  =        -0.51314836  see jH, gK, PRB 81, 115126


--------------------------------------------------------------------------------------------------------




--------------------------------------- Iteration      1(   4)  ---------------------------------------


    POTLOK:  cpu time    0.1237: real time    0.1252
    SETDIJ:  cpu time    1.5586: real time    1.5625
    TRIAL :  cpu time  190.8434: real time  191.4252
    CORREC:  cpu time    0.0072: real time    0.0072
    CHARGE:  cpu time    0.0511: real time    0.0513
    --------------------------------------------
      LOOP:  cpu time  192.5851: real time  193.1794

 eigenvalue-minimisations  :     0
 total energy-change (2. order) :-0.1760613E-01  (-0.7971760E-02)
 number of electron     861.9999060 magnetization       2.0000001
 augmentation part       20.3940131 magnetization       0.1244264

 Free energy of the ion-electron system (eV)
  ---------------------------------------------------
  alpha Z        PSCENC =      3094.29412155
  Ewald energy   TEWEN  =    -37394.15654066
  -Hartree energ DENC   =     -2918.34958444
  -exchange      EXHF   =      1987.12138896
  -V(xc)+E(xc)   XCENC  =      2444.23485007
  PAW double counting   =     14838.53240424   -15037.57105985
  entropy T*S    EENTRO =         0.00000000
  eigenvalues    EBANDS =      -636.24254715
  atomic energy  EATOM  =     31220.86432716
  ---------------------------------------------------
  free energy    TOTEN  =     -2401.27264011 eV

  energy without entropy =    -2401.27264011  energy(sigma->0) =    -2401.27264011
  exchange ACFDT corr.  =        -0.51343950  see jH, gK, PRB 81, 115126


--------------------------------------------------------------------------------------------------------




--------------------------------------- Iteration      1(   5)  ---------------------------------------


    POTLOK:  cpu time    0.1208: real time    0.1223
    SETDIJ:  cpu time    1.5565: real time    1.5606
    TRIAL :  cpu time  190.9262: real time  191.5242
    CORREC:  cpu time    0.0072: real time    0.0072
    CHARGE:  cpu time    0.0508: real time    0.0510
    --------------------------------------------
      LOOP:  cpu time  192.6626: real time  193.2729

 eigenvalue-minimisations  :     0
 total energy-change (2. order) :-0.4963706E-02  (-0.4237482E-02)
 number of electron     861.9999060 magnetization       2.0000001
 augmentation part       20.3940509 magnetization       0.1248050

 Free energy of the ion-electron system (eV)
  ---------------------------------------------------
  alpha Z        PSCENC =      3094.29412155
  Ewald energy   TEWEN  =    -37394.15654066
  -Hartree energ DENC   =     -2918.53131943
  -exchange      EXHF   =      1987.12373335
  -V(xc)+E(xc)   XCENC  =      2444.23857261
  PAW double counting   =     14838.82689684   -15037.86543870
  entropy T*S    EENTRO =         0.00000000
  eigenvalues    EBANDS =      -636.07195654
  atomic energy  EATOM  =     31220.86432716
  ---------------------------------------------------
  free energy    TOTEN  =     -2401.27760382 eV

  energy without entropy =    -2401.27760382  energy(sigma->0) =    -2401.27760382
  exchange ACFDT corr.  =        -0.51404685  see jH, gK, PRB 81, 115126


--------------------------------------------------------------------------------------------------------




--------------------------------------- Iteration      1(   6)  ---------------------------------------


    POTLOK:  cpu time    0.1215: real time    0.1230
    SETDIJ:  cpu time    1.5498: real time    1.5538
    TRIAL :  cpu time  190.9068: real time  191.4919
    CORREC:  cpu time    0.0072: real time    0.0072
    CHARGE:  cpu time    0.0513: real time    0.0514
    --------------------------------------------
      LOOP:  cpu time  192.6375: real time  193.2348

 eigenvalue-minimisations  :     0
 total energy-change (2. order) :-0.3320996E-02  (-0.3833203E-02)
 number of electron     861.9999060 magnetization       2.0000001
 augmentation part       20.3937186 magnetization       0.1251013

 Free energy of the ion-electron system (eV)
  ---------------------------------------------------
  alpha Z        PSCENC =      3094.29412155
  Ewald energy   TEWEN  =    -37394.15654066
  -Hartree energ DENC   =     -2918.57033670
  -exchange      EXHF   =      1987.12366800
  -V(xc)+E(xc)   XCENC  =      2444.23886421
  PAW double counting   =     14838.97195041   -15038.01019644
  entropy T*S    EENTRO =         0.00000000
  eigenvalues    EBANDS =      -636.03678235
  atomic energy  EATOM  =     31220.86432716
  ---------------------------------------------------
  free energy    TOTEN  =     -2401.28092482 eV

  energy without entropy =    -2401.28092482  energy(sigma->0) =    -2401.28092482
  exchange ACFDT corr.  =        -0.51481317  see jH, gK, PRB 81, 115126


--------------------------------------------------------------------------------------------------------




--------------------------------------- Iteration      1(   7)  ---------------------------------------


    POTLOK:  cpu time    0.1221: real time    0.1236
    SETDIJ:  cpu time    1.5545: real time    1.5654
    TRIAL :  cpu time  190.9026: real time  191.5056
    CORREC:  cpu time    0.0072: real time    0.0072
    CHARGE:  cpu time    0.0510: real time    0.0511
    --------------------------------------------
      LOOP:  cpu time  192.6386: real time  193.2619

 eigenvalue-minimisations  :     0
 total energy-change (2. order) :-0.3135689E-02  (-0.2626031E-02)
 number of electron     861.9999060 magnetization       2.0000001
 augmentation part       20.3932785 magnetization       0.1253030

 Free energy of the ion-electron system (eV)
  ---------------------------------------------------
  alpha Z        PSCENC =      3094.29412155
  Ewald energy   TEWEN  =    -37394.15654066
  -Hartree energ DENC   =     -2918.52090846
  -exchange      EXHF   =      1987.12186333
  -V(xc)+E(xc)   XCENC  =      2444.23684826
  PAW double counting   =     14839.00560015   -15038.04330991
  entropy T*S    EENTRO =         0.00000000
  eigenvalues    EBANDS =      -636.08606194
  atomic energy  EATOM  =     31220.86432716
  ---------------------------------------------------
  free energy    TOTEN  =     -2401.28406050 eV

  energy without entropy =    -2401.28406050  energy(sigma->0) =    -2401.28406050
  exchange ACFDT corr.  =        -0.51557664  see jH, gK, PRB 81, 115126


--------------------------------------------------------------------------------------------------------




--------------------------------------- Iteration      1(   8)  ---------------------------------------


    POTLOK:  cpu time    0.1206: real time    0.1223
    SETDIJ:  cpu time    1.5584: real time    1.5636
    TRIAL :  cpu time  190.9458: real time  191.5283
    CORREC:  cpu time    0.0072: real time    0.0072
    CHARGE:  cpu time    0.0512: real time    0.0513
    --------------------------------------------
      LOOP:  cpu time  192.6842: real time  193.2807

 eigenvalue-minimisations  :     0
 total energy-change (2. order) :-0.2029057E-02  (-0.1306754E-02)
 number of electron     861.9999060 magnetization       2.0000001
 augmentation part       20.3929412 magnetization       0.1254163

 Free energy of the ion-electron system (eV)
  ---------------------------------------------------
  alpha Z        PSCENC =      3094.29412155
  Ewald energy   TEWEN  =    -37394.15654066
  -Hartree energ DENC   =     -2918.45159991
  -exchange      EXHF   =      1987.12001274
  -V(xc)+E(xc)   XCENC  =      2444.23451898
  PAW double counting   =     14838.99765769   -15038.03476990
  entropy T*S    EENTRO =         0.00000000
  eigenvalues    EBANDS =      -636.15381721
  atomic energy  EATOM  =     31220.86432716
  ---------------------------------------------------
  free energy    TOTEN  =     -2401.28608956 eV

  energy without entropy =    -2401.28608956  energy(sigma->0) =    -2401.28608956
  exchange ACFDT corr.  =        -0.51623307  see jH, gK, PRB 81, 115126


--------------------------------------------------------------------------------------------------------




--------------------------------------- Iteration      1(   9)  ---------------------------------------


    POTLOK:  cpu time    0.1232: real time    0.1251
    SETDIJ:  cpu time    1.5489: real time    1.5527
    TRIAL :  cpu time  190.8846: real time  191.4785
    CORREC:  cpu time    0.0072: real time    0.0072
    CHARGE:  cpu time    0.0510: real time    0.0511
    --------------------------------------------
      LOOP:  cpu time  192.6159: real time  193.2238

 eigenvalue-minimisations  :     0
 total energy-change (2. order) :-0.9775522E-03  (-0.6285271E-03)
 number of electron     861.9999060 magnetization       2.0000001
 augmentation part       20.3928087 magnetization       0.1254669

 Free energy of the ion-electron system (eV)
  ---------------------------------------------------
  alpha Z        PSCENC =      3094.29412155
  Ewald energy   TEWEN  =    -37394.15654066
  -Hartree energ DENC   =     -2918.41360670
  -exchange      EXHF   =      1987.11967800
  -V(xc)+E(xc)   XCENC  =      2444.23359942
  PAW double counting   =     14839.00963145   -15038.04637018
  entropy T*S    EENTRO =         0.00000000
  eigenvalues    EBANDS =      -636.19190716
  atomic energy  EATOM  =     31220.86432716
  ---------------------------------------------------
  free energy    TOTEN  =     -2401.28706711 eV

  energy without entropy =    -2401.28706711  energy(sigma->0) =    -2401.28706711
  exchange ACFDT corr.  =        -0.51674356  see jH, gK, PRB 81, 115126


--------------------------------------------------------------------------------------------------------




--------------------------------------- Iteration      1(  10)  ---------------------------------------


    POTLOK:  cpu time    0.1223: real time    0.1237
    SETDIJ:  cpu time    1.5547: real time    1.5591
    TRIAL :  cpu time  190.8947: real time  191.4863
    CORREC:  cpu time    0.0072: real time    0.0072
    CHARGE:  cpu time    0.0518: real time    0.0519
    --------------------------------------------
      LOOP:  cpu time  192.6317: real time  193.2360

 eigenvalue-minimisations  :     0
 total energy-change (2. order) :-0.4967415E-03  (-0.3835825E-03)
 number of electron     861.9999060 magnetization       2.0000001
 augmentation part       20.3928372 magnetization       0.1254856

 Free energy of the ion-electron system (eV)
  ---------------------------------------------------
  alpha Z        PSCENC =      3094.29412155
  Ewald energy   TEWEN  =    -37394.15654066
  -Hartree energ DENC   =     -2918.41760933
  -exchange      EXHF   =      1987.12093290
  -V(xc)+E(xc)   XCENC  =      2444.23432023
  PAW double counting   =     14839.05519213   -15038.09190973
  entropy T*S    EENTRO =         0.00000000
  eigenvalues    EBANDS =      -636.19039811
  atomic energy  EATOM  =     31220.86432716
  ---------------------------------------------------
  free energy    TOTEN  =     -2401.28756386 eV

  energy without entropy =    -2401.28756386  energy(sigma->0) =    -2401.28756386
  exchange ACFDT corr.  =        -0.51711488  see jH, gK, PRB 81, 115126


--------------------------------------------------------------------------------------------------------




--------------------------------------- Iteration      1(  11)  ---------------------------------------


    POTLOK:  cpu time    0.1232: real time    0.1247
    SETDIJ:  cpu time    1.5519: real time    1.5557
    TRIAL :  cpu time  191.4870: real time  192.0060
    CORREC:  cpu time    0.0072: real time    0.0072
    CHARGE:  cpu time    0.0513: real time    0.0515
    --------------------------------------------
      LOOP:  cpu time  193.2213: real time  193.7534

 eigenvalue-minimisations  :     0
 total energy-change (2. order) :-0.3250100E-03  (-0.2601522E-03)
 number of electron     861.9999060 magnetization       2.0000001
 augmentation part       20.3929372 magnetization       0.1254919

 Free energy of the ion-electron system (eV)
  ---------------------------------------------------
  alpha Z        PSCENC =      3094.29412155
  Ewald energy   TEWEN  =    -37394.15654066
  -Hartree energ DENC   =     -2918.44555864
  -exchange      EXHF   =      1987.12279467
  -V(xc)+E(xc)   XCENC  =      2444.23581614
  PAW double counting   =     14839.11281575   -15038.14977600
  entropy T*S    EENTRO =         0.00000000
  eigenvalues    EBANDS =      -636.16588884
  atomic energy  EATOM  =     31220.86432716
  ---------------------------------------------------
  free energy    TOTEN  =     -2401.28788887 eV

  energy without entropy =    -2401.28788887  energy(sigma->0) =    -2401.28788887
  exchange ACFDT corr.  =        -0.51737571  see jH, gK, PRB 81, 115126


--------------------------------------------------------------------------------------------------------




--------------------------------------- Iteration      1(  12)  ---------------------------------------


    POTLOK:  cpu time    0.1344: real time    0.1361
    SETDIJ:  cpu time    1.5475: real time    1.5514
    TRIAL :  cpu time  190.4510: real time  190.9710
    CORREC:  cpu time    0.0072: real time    0.0072
    CHARGE:  cpu time    0.0513: real time    0.0514
    --------------------------------------------
      LOOP:  cpu time  192.1929: real time  192.7270

 eigenvalue-minimisations  :     0
 total energy-change (2. order) :-0.2239276E-03  (-0.1664369E-03)
 number of electron     861.9999060 magnetization       2.0000001
 augmentation part       20.3930404 magnetization       0.1254950

 Free energy of the ion-electron system (eV)
  ---------------------------------------------------
  alpha Z        PSCENC =      3094.29412155
  Ewald energy   TEWEN  =    -37394.15654066
  -Hartree energ DENC   =     -2918.47589397
  -exchange      EXHF   =      1987.12433842
  -V(xc)+E(xc)   XCENC  =      2444.23718740
  PAW double counting   =     14839.15943030   -15038.19672989
  entropy T*S    EENTRO =         0.00000000
  eigenvalues    EBANDS =      -636.13835310
  atomic energy  EATOM  =     31220.86432716
  ---------------------------------------------------
  free energy    TOTEN  =     -2401.28811279 eV

  energy without entropy =    -2401.28811279  energy(sigma->0) =    -2401.28811279
  exchange ACFDT corr.  =        -0.51756604  see jH, gK, PRB 81, 115126


--------------------------------------------------------------------------------------------------------




--------------------------------------- Iteration      1(  13)  ---------------------------------------


    POTLOK:  cpu time    0.1215: real time    0.1231
    SETDIJ:  cpu time    1.5575: real time    1.5620
    TRIAL :  cpu time  190.6555: real time  191.1564
    CORREC:  cpu time    0.0072: real time    0.0072
    CHARGE:  cpu time    0.0509: real time    0.0510
    --------------------------------------------
      LOOP:  cpu time  192.3936: real time  192.9078

 eigenvalue-minimisations  :     0
 total energy-change (2. order) :-0.1437262E-03  (-0.1036824E-03)
 number of electron     861.9999060 magnetization       2.0000001
 augmentation part       20.3931159 magnetization       0.1254977

 Free energy of the ion-electron system (eV)
  ---------------------------------------------------
  alpha Z        PSCENC =      3094.29412155
  Ewald energy   TEWEN  =    -37394.15654066
  -Hartree energ DENC   =     -2918.49709479
  -exchange      EXHF   =      1987.12520647
  -V(xc)+E(xc)   XCENC  =      2444.23802541
  PAW double counting   =     14839.18611904   -15038.22369401
  entropy T*S    EENTRO =         0.00000000
  eigenvalues    EBANDS =      -636.11872668
  atomic energy  EATOM  =     31220.86432716
  ---------------------------------------------------
  free energy    TOTEN  =     -2401.28825652 eV

  energy without entropy =    -2401.28825652  energy(sigma->0) =    -2401.28825652
  exchange ACFDT corr.  =        -0.51771398  see jH, gK, PRB 81, 115126


--------------------------------------------------------------------------------------------------------




--------------------------------------- Iteration      1(  14)  ---------------------------------------


    POTLOK:  cpu time    0.1237: real time    0.1255
    SETDIJ:  cpu time    1.5572: real time    1.5610
    TRIAL :  cpu time  190.8363: real time  191.3665
    CORREC:  cpu time    0.0072: real time    0.0072
    CHARGE:  cpu time    0.0516: real time    0.0517
    --------------------------------------------
      LOOP:  cpu time  192.5773: real time  193.1200

 eigenvalue-minimisations  :     0
 total energy-change (2. order) :-0.9115975E-04  (-0.6902031E-04)
 number of electron     861.9999060 magnetization       2.0000001
 augmentation part       20.3931597 magnetization       0.1255009

 Free energy of the ion-electron system (eV)
  ---------------------------------------------------
  alpha Z        PSCENC =      3094.29412155
  Ewald energy   TEWEN  =    -37394.15654066
  -Hartree energ DENC   =     -2918.50728950
  -exchange      EXHF   =      1987.12547730
  -V(xc)+E(xc)   XCENC  =      2444.23834157
  PAW double counting   =     14839.19568216   -15038.23344263
  entropy T*S    EENTRO =         0.00000000
  eigenvalues    EBANDS =      -636.10902464
  atomic energy  EATOM  =     31220.86432716
  ---------------------------------------------------
  free energy    TOTEN  =     -2401.28834768 eV

  energy without entropy =    -2401.28834768  energy(sigma->0) =    -2401.28834768
  exchange ACFDT corr.  =        -0.51783861  see jH, gK, PRB 81, 115126


--------------------------------------------------------------------------------------------------------




--------------------------------------- Iteration      1(  15)  ---------------------------------------


    POTLOK:  cpu time    0.1214: real time    0.1228
    SETDIJ:  cpu time    1.5501: real time    1.5540
    TRIAL :  cpu time  191.0427: real time  191.5502
    CORREC:  cpu time    0.0072: real time    0.0072
    CHARGE:  cpu time    0.0510: real time    0.0511
    --------------------------------------------
      LOOP:  cpu time  192.7733: real time  193.2932

 eigenvalue-minimisations  :     0
 total energy-change (2. order) :-0.6232287E-04  (-0.5038013E-04)
 number of electron     861.9999060 magnetization       2.0000001
 augmentation part       20.3931791 magnetization       0.1255043

 Free energy of the ion-electron system (eV)
  ---------------------------------------------------
  alpha Z        PSCENC =      3094.29412155
  Ewald energy   TEWEN  =    -37394.15654066
  -Hartree energ DENC   =     -2918.50916911
  -exchange      EXHF   =      1987.12536913
  -V(xc)+E(xc)   XCENC  =      2444.23830547
  PAW double counting   =     14839.19453755   -15038.23241867
  entropy T*S    EENTRO =         0.00000000
  eigenvalues    EBANDS =      -636.10694243
  atomic energy  EATOM  =     31220.86432716
  ---------------------------------------------------
  free energy    TOTEN  =     -2401.28841000 eV

  energy without entropy =    -2401.28841000  energy(sigma->0) =    -2401.28841000
  exchange ACFDT corr.  =        -0.51795148  see jH, gK, PRB 81, 115126


--------------------------------------------------------------------------------------------------------




--------------------------------------- Iteration      1(  16)  ---------------------------------------


    POTLOK:  cpu time    0.1232: real time    0.1246
    SETDIJ:  cpu time    1.5511: real time    1.5550
    TRIAL :  cpu time  191.0381: real time  191.5647
[...]
    4ORBIT:  cpu time    0.0000: real time    0.0000
 


 total charge     
 
# of ion       s       p       d       tot
------------------------------------------
    1        1.204   2.662   0.000   3.867
    2        0.836   1.749   0.000   2.584
    3        0.836   1.748   0.000   2.584
    4        0.836   1.749   0.000   2.585
    5        0.835   1.742   0.000   2.577
    6        0.836   1.748   0.000   2.584
    7        0.830   1.711   0.000   2.542
    8        0.839   1.753   0.000   2.592
    9        0.837   1.754   0.000   2.591
   10        0.837   1.752   0.000   2.588
   11        0.836   1.748   0.000   2.583
   12        0.836   1.750   0.000   2.586
   13        0.836   1.748   0.000   2.583
   14        0.836   1.750   0.000   2.586
   15        0.836   1.748   0.000   2.584
   16        0.836   1.750   0.000   2.586
   17        0.836   1.749   0.000   2.585
   18        0.836   1.749   0.000   2.585
   19        0.836   1.750   0.000   2.586
   20        0.836   1.749   0.000   2.584
   21        0.836   1.748   0.000   2.584
   22        0.839   1.744   0.000   2.583
   23        0.836   1.749   0.000   2.585
   24        0.836   1.751   0.000   2.587
   25        0.837   1.754   0.000   2.591
   26        0.836   1.746   0.000   2.581
   27        0.835   1.742   0.000   2.577
   28        0.836   1.750   0.000   2.586
   29        0.836   1.749   0.000   2.585
   30        0.836   1.740   0.000   2.576
   31        0.836   1.749   0.000   2.585
   32        0.836   1.753   0.000   2.589
   33        0.836   1.740   0.000   2.576
   34        0.836   1.752   0.000   2.589
   35        0.836   1.741   0.000   2.576
   36        0.836   1.754   0.000   2.590
   37        0.836   1.749   0.000   2.585
   38        0.836   1.748   0.000   2.584
   39        0.839   1.744   0.000   2.583
   40        0.836   1.749   0.000   2.585
   41        0.836   1.751   0.000   2.587
   42        0.836   1.750   0.000   2.586
   43        0.836   1.749   0.000   2.584
   44        0.837   1.754   0.000   2.591
   45        0.836   1.746   0.000   2.581
   46        0.836   1.753   0.000   2.589
   47        0.836   1.740   0.000   2.576
   48        0.836   1.749   0.000   2.585
   49        0.836   1.749   0.000   2.585
   50        0.836   1.752   0.000   2.589
   51        0.836   1.754   0.000   2.590
   52        0.849   1.763   0.000   2.612
   53        0.836   1.750   0.000   2.586
   54        0.836   1.749   0.000   2.586
   55        0.837   1.752   0.000   2.588
   56        0.836   1.747   0.000   2.582
   57        0.836   1.749   0.000   2.586
   58        0.836   1.750   0.000   2.586
   59        0.836   1.750   0.000   2.586
   60        0.836   1.750   0.000   2.586
   61        0.836   1.750   0.000   2.586
   62        0.836   1.748   0.000   2.584
   63        0.836   1.750   0.000   2.586
   64        0.830   1.711   0.000   2.542
   65        0.839   1.753   0.000   2.592
   66        0.835   1.742   0.000   2.577
   67        0.836   1.748   0.000   2.584
   68        0.835   1.742   0.000   2.577
   69        0.836   1.748   0.000   2.584
   70        0.837   1.754   0.000   2.591
   71        0.837   1.752   0.000   2.588
   72        0.836   1.750   0.000   2.586
   73        0.837   1.751   0.000   2.588
   74        0.836   1.750   0.000   2.586
   75        0.837   1.751   0.000   2.588
   76        0.836   1.750   0.000   2.586
   77        0.837   1.751   0.000   2.588
   78        0.837   1.754   0.000   2.591
   79        0.836   1.747   0.000   2.582
   80        0.836   1.748   0.000   2.584
   81        0.839   1.753   0.000   2.592
   82        0.836   1.750   0.000   2.586
   83        0.836   1.750   0.000   2.586
   84        0.836   1.748   0.000   2.584
   85        0.836   1.750   0.000   2.586
   86        0.836   1.748   0.000   2.584
   87        0.839   1.744   0.000   2.583
   88        0.836   1.750   0.000   2.586
   89        0.836   1.749   0.000   2.584
   90        0.836   1.749   0.000   2.585
   91        0.836   1.751   0.000   2.587
   92        0.837   1.754   0.000   2.591
   93        0.836   1.746   0.000   2.581
   94        0.836   1.752   0.000   2.589
   95        0.836   1.741   0.000   2.576
   96        0.836   1.753   0.000   2.589
   97        0.836   1.740   0.000   2.576
   98        0.836   1.749   0.000   2.585
   99        0.836   1.749   0.000   2.585
  100        0.836   1.754   0.000   2.590
  101        0.836   1.749   0.000   2.585
  102        0.835   1.742   0.000   2.577
  103        0.836   1.748   0.000   2.584
  104        0.830   1.711   0.000   2.542
  105        0.835   1.742   0.000   2.577
  106        0.838   1.750   0.000   2.588
  107        0.849   1.763   0.000   2.612
  108        0.838   1.750   0.000   2.588
  109        0.836   1.750   0.000   2.586
  110        0.836   1.748   0.000   2.584
  111        0.837   1.753   0.000   2.591
  112        0.839   1.746   0.000   2.585
  113        0.836   1.750   0.000   2.586
  114        0.836   1.750   0.000   2.586
  115        0.836   1.750   0.000   2.586
  116        0.836   1.750   0.000   2.586
  117        0.836   1.748   0.000   2.584
  118        0.837   1.749   0.000   2.586
  119        0.836   1.751   0.000   2.587
  120        0.836   1.750   0.000   2.586
  121        0.836   1.749   0.000   2.585
  122        0.836   1.751   0.000   2.587
  123        0.836   1.750   0.000   2.586
  124        0.836   1.749   0.000   2.584
  125        0.836   1.748   0.000   2.584
  126        0.839   1.744   0.000   2.583
  127        0.837   1.754   0.000   2.591
  128        0.836   1.746   0.000   2.581
  129        0.836   1.748   0.000   2.583
  130        0.836   1.750   0.000   2.586
  131        0.836   1.748   0.000   2.584
  132        0.836   1.750   0.000   2.586
  133        0.836   1.750   0.000   2.586
  134        0.837   1.754   0.000   2.592
  135        0.836   1.750   0.000   2.586
  136        0.836   1.749   0.000   2.585
  137        0.836   1.749   0.000   2.584
  138        0.836   1.749   0.000   2.585
  139        0.836   1.749   0.000   2.584
  140        0.836   1.749   0.000   2.585
  141        0.836   1.749   0.000   2.585
  142        0.836   1.748   0.000   2.584
  143        0.837   1.754   0.000   2.592
  144        0.836   1.750   0.000   2.586
  145        0.836   1.750   0.000   2.586
  146        0.836   1.748   0.000   2.584
  147        0.836   1.750   0.000   2.586
  148        0.836   1.748   0.000   2.584
  149        0.837   1.753   0.000   2.591
  150        0.839   1.746   0.000   2.585
  151        0.836   1.748   0.000   2.584
  152        0.836   1.750   0.000   2.586
  153        0.836   1.748   0.000   2.583
  154        0.836   1.750   0.000   2.586
  155        0.836   1.748   0.000   2.583
  156        0.836   1.750   0.000   2.586
  157        0.836   1.749   0.000   2.585
  158        0.836   1.749   0.000   2.585
  159        0.836   1.748   0.000   2.584
  160        0.836   1.748   0.000   2.583
  161        0.836   1.750   0.000   2.586
  162        0.836   1.749   0.000   2.585
  163        0.837   1.749   0.000   2.586
  164        0.836   1.750   0.000   2.586
  165        0.836   1.750   0.000   2.586
  166        0.836   1.751   0.000   2.587
  167        0.836   1.750   0.000   2.586
  168        0.836   1.749   0.000   2.585
  169        0.836   1.751   0.000   2.587
  170        0.836   1.748   0.000   2.584
  171        0.839   1.744   0.000   2.583
  172        0.836   1.750   0.000   2.586
  173        0.836   1.749   0.000   2.584
  174        0.837   1.754   0.000   2.591
  175        0.836   1.746   0.000   2.581
  176        0.836   1.748   0.000   2.584
  177        0.837   1.749   0.000   2.586
  178        0.836   1.750   0.000   2.586
  179        0.836   1.750   0.000   2.586
  180        0.836   1.750   0.000   2.586
  181        0.836   1.750   0.000   2.586
  182        0.836   1.751   0.000   2.587
  183        0.836   1.750   0.000   2.586
  184        0.838   1.750   0.000   2.588
  185        0.849   1.763   0.000   2.612
  186        0.836   1.748   0.000   2.584
  187        0.836   1.750   0.000   2.586
  188        0.836   1.750   0.000   2.586
  189        0.839   1.746   0.000   2.585
  190        0.836   1.749   0.000   2.585
  191        0.836   1.750   0.000   2.586
  192        0.836   1.749   0.000   2.584
  193        0.836   1.749   0.000   2.585
  194        0.836   1.751   0.000   2.587
  195        0.836   1.748   0.000   2.584
  196        0.839   1.744   0.000   2.583
  197        0.837   1.754   0.000   2.591
  198        0.836   1.746   0.000   2.581
  199        0.836   1.750   0.000   2.586
  200        0.836   1.750   0.000   2.586
  201        0.836   1.749   0.000   2.585
  202        0.836   1.750   0.000   2.586
  203        0.836   1.747   0.000   2.582
  204        0.836   1.749   0.000   2.586
  205        0.836   1.748   0.000   2.584
  206        0.836   1.750   0.000   2.586
  207        0.836   1.750   0.000   2.586
  208        0.836   1.748   0.000   2.584
  209        0.836   1.750   0.000   2.586
  210        0.836   1.748   0.000   2.584
  211        0.837   1.754   0.000   2.592
  212        0.836   1.750   0.000   2.586
  213        0.837   1.753   0.000   2.591
  214        0.836   1.750   0.000   2.586
  215        0.836   1.750   0.000   2.586
--------------------------------------------------
tot        180.191 376.900   0.000 557.091
 


 magnetization (x)
 
# of ion       s       p       d       tot
------------------------------------------
    1        0.014   0.134   0.000   0.148
    2       -0.000   0.000   0.000   0.000
    3       -0.000   0.000   0.000   0.000
    4       -0.000  -0.001   0.000  -0.002
    5       -0.000  -0.000   0.000  -0.000
    6       -0.000   0.000   0.000   0.000
    7       -0.000   0.001   0.000   0.000
    8        0.001   0.009   0.000   0.010
    9        0.000   0.001   0.000   0.002
   10        0.000   0.001   0.000   0.001
   11       -0.000  -0.000   0.000  -0.000
   12        0.000   0.001   0.000   0.001
   13       -0.000  -0.000   0.000  -0.000
   14        0.000   0.001   0.000   0.001
   15       -0.000   0.000   0.000   0.000
   16        0.000   0.001   0.000   0.001
   17       -0.000  -0.000   0.000  -0.000
   18        0.000   0.001   0.000   0.002
   19       -0.000  -0.000   0.000  -0.000
   20        0.000   0.000   0.000   0.000
   21       -0.001  -0.001   0.000  -0.002
   22        0.003   0.017   0.000   0.021
   23       -0.000  -0.000   0.000  -0.000
   24        0.000   0.001   0.000   0.001
   25        0.000   0.001   0.000   0.002
   26       -0.000   0.000   0.000   0.000
   27       -0.000  -0.000   0.000  -0.000
   28       -0.000   0.000   0.000  -0.000
   29        0.000   0.001   0.000   0.001
   30        0.001   0.005   0.000   0.005
   31        0.000   0.001   0.000   0.001
   32       -0.002  -0.008   0.000  -0.010
   33        0.001   0.005   0.000   0.005
   34       -0.002  -0.007   0.000  -0.010
   35        0.001   0.005   0.000   0.005
   36       -0.000  -0.001   0.000  -0.001
   37        0.000   0.001   0.000   0.001
   38       -0.001  -0.001   0.000  -0.002
   39        0.003   0.017   0.000   0.021
   40       -0.000  -0.000   0.000  -0.000
   41        0.000   0.001   0.000   0.001
   42       -0.000  -0.000   0.000  -0.000
   43        0.000   0.000   0.000   0.000
   44        0.000   0.001   0.000   0.002
   45       -0.000   0.000   0.000   0.000
   46       -0.002  -0.007   0.000  -0.010
   47        0.001   0.005   0.000   0.005
   48       -0.000  -0.001   0.000  -0.002
   49        0.000   0.001   0.000   0.001
   50       -0.002  -0.007   0.000  -0.010
   51       -0.000  -0.001   0.000  -0.001
   52        0.031   0.260   0.000   0.291
   53        0.000   0.000   0.000   0.000
   54       -0.000   0.000   0.000   0.000
   55        0.000   0.001   0.000   0.001
   56       -0.000  -0.001   0.000  -0.001
   57       -0.000   0.000   0.000   0.000
   58       -0.000   0.000   0.000  -0.000
   59        0.000   0.000   0.000   0.000
   60       -0.000   0.000   0.000  -0.000
   61        0.000   0.000   0.000   0.000
   62       -0.000   0.000   0.000  -0.000
   63        0.000   0.000   0.000   0.000
   64       -0.000   0.001   0.000   0.001
   65        0.001   0.009   0.000   0.010
   66       -0.000  -0.000   0.000  -0.000
   67       -0.000   0.000   0.000   0.000
   68       -0.000  -0.000   0.000  -0.000
   69       -0.000   0.000   0.000   0.000
   70        0.000   0.001   0.000   0.002
   71        0.000   0.001   0.000   0.001
   72       -0.000   0.000   0.000   0.000
   73        0.000   0.001   0.000   0.001
   74       -0.000   0.000   0.000   0.000
   75        0.000   0.001   0.000   0.001
   76       -0.000   0.000   0.000   0.000
   77        0.000   0.001   0.000   0.001
   78        0.000   0.001   0.000   0.002
   79       -0.000  -0.001   0.000  -0.001
   80       -0.000   0.000   0.000   0.000
   81        0.001   0.009   0.000   0.010
   82       -0.000   0.000   0.000  -0.000
   83        0.000   0.000   0.000   0.000
   84       -0.000   0.000   0.000  -0.000
   85        0.000   0.000   0.000   0.000
   86       -0.001  -0.001   0.000  -0.002
   87        0.003   0.018   0.000   0.021
   88       -0.000  -0.000   0.000  -0.000
   89        0.000   0.000   0.000   0.000
   90       -0.000  -0.000   0.000  -0.000
   91        0.000   0.001   0.000   0.001
   92        0.000   0.001   0.000   0.002
   93       -0.000   0.000   0.000   0.000
   94       -0.002  -0.007   0.000  -0.010
   95        0.001   0.005   0.000   0.005
   96       -0.002  -0.008   0.000  -0.010
   97        0.001   0.005   0.000   0.005
   98       -0.000  -0.001   0.000  -0.002
   99        0.000   0.001   0.000   0.001
  100       -0.000  -0.001   0.000  -0.001
  101        0.000   0.001   0.000   0.001
  102       -0.000  -0.000   0.000  -0.000
  103       -0.000   0.000   0.000   0.000
  104       -0.000   0.001   0.000   0.001
  105       -0.000  -0.000   0.000  -0.000
  106       -0.002  -0.003   0.000  -0.006
  107        0.031   0.260   0.000   0.291
  108       -0.002  -0.003   0.000  -0.006
  109       -0.000  -0.000   0.000  -0.000
  110       -0.000   0.000   0.000   0.000
  111        0.000   0.003   0.000   0.004
  112        0.003   0.018   0.000   0.021
  113       -0.000  -0.000   0.000  -0.000
  114        0.000   0.001   0.000   0.001
  115       -0.000  -0.000   0.000  -0.000
  116        0.000   0.001   0.000   0.001
  117       -0.000  -0.000   0.000  -0.001
  118        0.001   0.006   0.000   0.007
  119       -0.000  -0.001   0.000  -0.002
  120        0.002   0.005   0.000   0.007
  121       -0.000  -0.000   0.000  -0.000
  122        0.000   0.001   0.000   0.001
  123       -0.000  -0.000   0.000  -0.000
  124        0.000   0.000   0.000   0.000
  125       -0.001  -0.001   0.000  -0.002
  126        0.003   0.018   0.000   0.021
  127        0.000   0.001   0.000   0.002
  128       -0.000   0.000   0.000   0.000
  129       -0.000  -0.000   0.000  -0.000
  130        0.000   0.001   0.000   0.001
  131       -0.000   0.000   0.000   0.000
  132        0.000   0.002   0.000   0.002
  133        0.000   0.001   0.000   0.001
  134        0.000   0.001   0.000   0.002
  135       -0.000  -0.000   0.000  -0.000
  136        0.000   0.000   0.000   0.000
  137       -0.000   0.000   0.000   0.000
  138        0.000   0.000   0.000   0.000
  139       -0.000   0.000   0.000   0.000
  140        0.000   0.000   0.000   0.000
  141        0.000   0.000   0.000   0.000
  142        0.000   0.001   0.000   0.001
  143        0.000   0.002   0.000   0.002
  144        0.000   0.002   0.000   0.002
  145       -0.000  -0.000   0.000  -0.000
  146       -0.000   0.000   0.000   0.000
  147       -0.000  -0.000   0.000  -0.000
  148       -0.000   0.000   0.000   0.000
  149        0.000   0.003   0.000   0.004
  150        0.003   0.018   0.000   0.021
  151       -0.000   0.000   0.000   0.000
  152        0.000   0.001   0.000   0.001
  153       -0.000  -0.000   0.000  -0.000
  154        0.000   0.001   0.000   0.001
  155       -0.000  -0.000   0.000  -0.000
  156        0.000   0.001   0.000   0.001
  157       -0.000  -0.000   0.000  -0.000
  158        0.000   0.001   0.000   0.002
  159       -0.000   0.000   0.000   0.000
  160       -0.000  -0.000   0.000  -0.000
  161        0.000   0.001   0.000   0.001
  162       -0.000  -0.000   0.000  -0.000
  163        0.001   0.006   0.000   0.007
  164       -0.000  -0.000   0.000  -0.000
  165        0.000   0.001   0.000   0.001
  166       -0.000  -0.001   0.000  -0.002
  167        0.002   0.005   0.000   0.007
  168       -0.000  -0.000   0.000  -0.000
  169        0.000   0.001   0.000   0.001
  170       -0.001  -0.001   0.000  -0.002
  171        0.003   0.018   0.000   0.021
  172       -0.000  -0.000   0.000  -0.000
  173        0.000   0.000   0.000   0.000
  174        0.000   0.001   0.000   0.002
  175       -0.000   0.000   0.000   0.000
  176       -0.000  -0.000   0.000  -0.001
  177        0.001   0.006   0.000   0.007
  178       -0.000  -0.000   0.000  -0.000
  179        0.000   0.001   0.000   0.001
  180       -0.000  -0.000   0.000  -0.000
  181        0.000   0.001   0.000   0.001
  182       -0.000  -0.001   0.000  -0.002
  183        0.002   0.005   0.000   0.007
  184       -0.002  -0.003   0.000  -0.006
  185        0.031   0.260   0.000   0.291
  186       -0.000  -0.000   0.000  -0.001
  187        0.000   0.001   0.000   0.001
  188       -0.000  -0.000   0.000  -0.000
  189        0.003   0.018   0.000   0.021
  190        0.000   0.001   0.000   0.002
  191       -0.000  -0.000   0.000  -0.000
  192        0.000   0.000   0.000   0.000
  193       -0.000  -0.000   0.000  -0.000
  194        0.000   0.001   0.000   0.001
  195       -0.001  -0.001   0.000  -0.002
  196        0.003   0.018   0.000   0.021
  197        0.000   0.001   0.000   0.002
  198       -0.000   0.000   0.000   0.000
  199       -0.000   0.000   0.000  -0.000
  200        0.000   0.000   0.000   0.000
  201       -0.000   0.000   0.000   0.000
  202       -0.000   0.000   0.000  -0.000
  203       -0.000  -0.001   0.000  -0.001
  204       -0.000   0.000   0.000   0.000
  205       -0.000   0.000   0.000  -0.000
  206        0.000   0.000   0.000   0.000
  207       -0.000  -0.000   0.000  -0.000
  208       -0.000   0.000   0.000   0.000
  209       -0.000  -0.000   0.000  -0.000
  210       -0.000   0.000   0.000   0.000
  211        0.000   0.001   0.000   0.002
  212        0.000   0.002   0.000   0.002
  213        0.000   0.003   0.000   0.004
  214        0.000   0.000   0.000   0.000
  215        0.000   0.001   0.000   0.001
--------------------------------------------------
tot          0.128   1.164   0.000   1.292
 

 total amount of memory used by VASP MPI-rank0   366403. kBytes
=======================================================================

   base      :      30000. kBytes
   nonlr-proj:     285019. kBytes
   fftplans  :       2099. kBytes
   grid      :       4371. kBytes
   one-center:         55. kBytes
   HF        :          9. kBytes
   wavefun   :      44850. kBytes
 
  
  
 General timing and accounting informations for this job:
 ========================================================
  
                  Total CPU time used (sec):    55009.426
                            User time (sec):    54999.217
                          System time (sec):       10.208
                         Elapsed time (sec):    55242.138
  
                   Maximum memory used (kb):      624572.
                   Average memory used (kb):           0.
  
                          Minor page faults:      2323192
                          Major page faults:            0
                 Voluntary context switches:        15804
