 vasp.6.3.0 20Jan22 (build Aug  2 2025 20:03:48) complex                         
 executed on              LinuxNV date 2026.04.06  14:05:56
 running on    4 total cores
 distrk:  each k-point on    4 cores,    1 groups
 distr:  one band on NCORE=   1 cores,    4 groups


--------------------------------------------------------------------------------------------------------


 INCAR:
   ALGO = Normal
   PREC = Normal
   LREAL = Auto
   EDIFF = 1e-05
   ENCUT = 520.0
   LASPH = True
   NELM = 100
   ISIF = 2
   IBRION = 2
   EDIFFG = -0.01
   NSW = 500
   ISYM = -1
   ISMEAR = 0
   SIGMA = 0.1
   NELECT = 862
   ISPIN = 2
   LWAVE = True
   LCHARG = True
   LORBIT = 11

 POTCAR:   PAW_PBE N 08Apr2002                    
 POTCAR:   PAW_PBE C 08Apr2002                    
 -----------------------------------------------------------------------------
|                                                                             |
|           W    W    AA    RRRRR   N    N  II  N    N   GGGG   !!!           |
|           W    W   A  A   R    R  NN   N  II  NN   N  G    G  !!!           |
|           W    W  A    A  R    R  N N  N  II  N N  N  G       !!!           |
|           W WW W  AAAAAA  RRRRR   N  N N  II  N  N N  G  GGG   !            |
|           WW  WW  A    A  R   R   N   NN  II  N   NN  G    G                |
|           W    W  A    A  R    R  N    N  II  N    N   GGGG   !!!           |
|                                                                             |
|     You use a magnetic or noncollinear calculation, but did not specify     |
|     the initial magnetic moment with the MAGMOM tag. Note that a            |
|     default of 1 will be used for all atoms. This ferromagnetic setup       |
|     may break the symmetry of the crystal, in particular it may rule        |
|     out finding an antiferromagnetic solution. Thence, we recommend         |
|     setting the initial magnetic moment manually or verifying carefully     |
|     that this magnetic setup is desired.                                    |
|                                                                             |
 -----------------------------------------------------------------------------

 POTCAR:   PAW_PBE N 08Apr2002                    
   VRHFIN =N: s2p3                                                                                  
   LEXCH  = PE                                                                                      
   EATOM  =   264.5486 eV,   19.4438 Ry                                                             
                                                                                                    
   TITEL  = PAW_PBE N 08Apr2002                                                                     
   LULTRA =        F    use ultrasoft PP ?                                                          
   IUNSCR =        0    unscreen: 0-lin 1-nonlin 2-no                                               
   RPACOR =     .000    partial core radius                                                         
   POMASS =   14.001; ZVAL   =    5.000    mass and valenz                                          
   RCORE  =    1.500    outmost cutoff radius                                                       
   RWIGS  =    1.400; RWIGS  =     .741    wigner-seitz radius (au A)                               
   ENMAX  =  400.000; ENMIN  =  300.000 eV                                                          
   ICORE  =        2    local potential                                                             
   LCOR   =        T    correct aug charges                                                         
   LPAW   =        T    paw PP                                                                      
   EAUG   =  627.112                                                                                
   DEXC   =     .000                                                                                
   RMAX   =    2.247    core radius for proj-oper                                                   
   RAUG   =    1.300    factor for augmentation sphere                                              
   RDEP   =    1.514    radius for radial grids                                                     
   QCUT   =   -5.562; QGAM   =   11.124    optimization parameters                                  
                                                                                                    
   Description                                                                                      
     l     E      TYP  RCUT    TYP  RCUT                                                            
     0   .000     23  1.200                                                                         
     0   .000     23  1.200                                                                         
     1   .000     23  1.500                                                                         
     1   .700     23  1.500                                                                         
     2   .000      7  1.500                                                                         
  local pseudopotential read in
  atomic valenz-charges read in
  non local Contribution for L=            0  read in
    real space projection operators read in
  non local Contribution for L=            0  read in
    real space projection operators read in
  non local Contribution for L=            1  read in
    real space projection operators read in
  non local Contribution for L=            1  read in
    real space projection operators read in
    PAW grid and wavefunctions read in
 
   number of l-projection  operators is LMAX  =            4
   number of lm-projection operators is LMMAX =            8
 
 POTCAR:   PAW_PBE C 08Apr2002                    
   VRHFIN =C: s2p2                                                                                  
   LEXCH  = PE                                                                                      
   EATOM  =   147.1560 eV,   10.8157 Ry                                                             
                                                                                                    
   TITEL  = PAW_PBE C 08Apr2002                                                                     
   LULTRA =        F    use ultrasoft PP ?                                                          
   IUNSCR =        0    unscreen: 0-lin 1-nonlin 2-no                                               
   RPACOR =     .000    partial core radius                                                         
   POMASS =   12.011; ZVAL   =    4.000    mass and valenz                                          
   RCORE  =    1.500    outmost cutoff radius                                                       
   RWIGS  =    1.630; RWIGS  =     .863    wigner-seitz radius (au A)                               
   ENMAX  =  400.000; ENMIN  =  300.000 eV                                                          
   ICORE  =        2    local potential                                                             
   LCOR   =        T    correct aug charges                                                         
   LPAW   =        T    paw PP                                                                      
   EAUG   =  644.873                                                                                
   DEXC   =     .000                                                                                
   RMAX   =    2.266    core radius for proj-oper                                                   
   RAUG   =    1.300    factor for augmentation sphere                                              
   RDEP   =    1.501    radius for radial grids                                                     
   RDEPT  =    1.300    core radius for aug-charge                                                  
   QCUT   =   -5.516; QGAM   =   11.032    optimization parameters                                  
                                                                                                    
   Description                                                                                      
     l     E      TYP  RCUT    TYP  RCUT                                                            
     0   .000     23  1.200                                                                         
     0   .000     23  1.200                                                                         
     1   .000     23  1.500                                                                         
     1  2.500     23  1.500                                                                         
     2   .000      7  1.500                                                                         
  local pseudopotential read in
  atomic valenz-charges read in
  non local Contribution for L=            0  read in
    real space projection operators read in
  non local Contribution for L=            0  read in
    real space projection operators read in
  non local Contribution for L=            1  read in
    real space projection operators read in
  non local Contribution for L=            1  read in
    real space projection operators read in
    PAW grid and wavefunctions read in
 
   number of l-projection  operators is LMAX  =            4
   number of lm-projection operators is LMMAX =            8
 
 Optimization of the real space projectors (new method)

 maximal supplied QI-value         = 25.13
 optimisation between [QCUT,QGAM] = [ 11.56, 23.12] = [ 37.43,149.72] Ry 
 Optimized for a Real-space Cutoff    1.25 Angstroem

   l    n(q)    QCUT    max X(q) W(low)/X(q) W(high)/X(q)  e(spline) 
   0      9    11.561     4.511    0.30E-04    0.28E-04    0.49E-07
   0      9    11.561    37.799    0.51E-04    0.16E-03    0.37E-06
   1      8    11.561     2.478    0.16E-04    0.39E-04    0.64E-07
   1      8    11.561    11.620    0.47E-03    0.29E-03    0.82E-06
 Optimization of the real space projectors (new method)

 maximal supplied QI-value         = 25.13
 optimisation between [QCUT,QGAM] = [ 11.56, 23.12] = [ 37.43,149.72] Ry 
 Optimized for a Real-space Cutoff    1.01 Angstroem

   l    n(q)    QCUT    max X(q) W(low)/X(q) W(high)/X(q)  e(spline) 
   0      7    11.561     5.582    0.37E-04    0.15E-03    0.14E-07
   0      7    11.561    69.432    0.33E-03    0.93E-03    0.20E-06
   1      6    11.561     2.780    0.26E-04    0.68E-04    0.38E-07
   1      6    11.561     4.549    0.40E-03    0.28E-03    0.11E-06
 PAW_PBE N 08Apr2002                    :
 energy of atom  1       EATOM= -264.5486
 kinetic energy error for atom=    0.0125 (will be added to EATOM!!)
 PAW_PBE C 08Apr2002                    :
 energy of atom  2       EATOM= -147.1560
 kinetic energy error for atom=    0.0071 (will be added to EATOM!!)
 
 
 POSCAR: x3
  positions in direct lattice
  velocities in cartesian coordinates
 exchange correlation table for  LEXCH =        8
   RHO(1)=    0.500       N(1)  =     2000
   RHO(2)=  100.500       N(2)  =     4000
 


--------------------------------------------------------------------------------------------------------


 ion  position               nearest neighbor table
   1  0.549  0.383  0.549- 104 1.47   7 1.47  64 1.47
   2  0.958  0.792  0.125- 136 1.54 133 1.54  16 1.54  63 1.54
   3  0.375  0.542  0.875-   9 1.54  42 1.54  40 1.54  27 1.54
   4  0.292  0.125  0.791-  31 1.54 171 1.54 126 1.54 158 1.54
   5  0.293  0.624  0.625- 204 1.54   6 1.54 198 1.55  47 1.55
   6  0.375  0.708  0.708-   9 1.54 172 1.54 168 1.54   5 1.54
   7  0.462  0.458  0.625-   1 1.47   8 1.54  47 1.55  33 1.55
   8  0.542  0.543  0.710-   9 1.53   7 1.54  72 1.54  74 1.54
   9  0.459  0.626  0.792-   8 1.53  10 1.54   3 1.54   6 1.54
  10  0.542  0.709  0.875-   9 1.54 211 1.54  58 1.54  28 1.54
  11  0.625  0.791  0.125-  59 1.54  12 1.54 212 1.55  45 1.55
  12  0.708  0.875  0.208-  11 1.54  21 1.54  23 1.54  17 1.54
  13  0.625  0.959  0.958-  53 1.54  14 1.54 212 1.55 175 1.55
  14  0.708  0.042  0.042-  13 1.54  86 1.54  90 1.54  17 1.54
  15  0.792  0.792  0.958-  16 1.54 215 1.54  59 1.54  53 1.54
  16  0.875  0.875  0.042-  15 1.54  17 1.54   2 1.54 137 1.54
  17  0.792  0.958  0.125-  18 1.54  16 1.54  12 1.54  14 1.54
  18  0.875  0.042  0.208-  17 1.54 135 1.54 145 1.54  98 1.54
  19  0.625  0.792  0.458-  29 1.54  67 1.54 165 1.54  20 1.54
  20  0.708  0.875  0.542-  25 1.54  19 1.54  82 1.54  79 1.54
  21  0.625  0.958  0.292-  12 1.54 165 1.54 189 1.54  22 1.54
  22  0.709  0.041  0.375-  25 1.54  98 1.54  21 1.54  94 1.56
  23  0.792  0.792  0.292-  63 1.54  12 1.54  24 1.54  67 1.54
  24  0.875  0.875  0.375- 143 1.54  25 1.54 145 1.54  23 1.54
  25  0.792  0.958  0.458-  22 1.54  24 1.54  20 1.54  26 1.54
  26  0.875  0.042  0.542- 113 1.54  25 1.54 153 1.55 105 1.55
  27  0.293  0.458  0.791- 204 1.54   3 1.54 128 1.55  33 1.55
  28  0.625  0.792  0.792-  53 1.54  75 1.54 173 1.54  10 1.54
  29  0.542  0.708  0.542- 172 1.54  19 1.54  74 1.54  51 1.55
  30  0.541  0.540  0.377-  51 1.53  50 1.55  64 1.55  66 1.55
  31  0.375  0.208  0.875- 178 1.54 180 1.54   4 1.54  36 1.54
  32  0.293  0.291  0.623- 185 1.50 120 1.54  33 1.55 126 1.56
  33  0.377  0.374  0.707-  36 1.53  32 1.55   7 1.55  27 1.55
  34  0.457  0.126  0.623- 185 1.50 167 1.54  35 1.55 171 1.56
  35  0.541  0.210  0.707-  36 1.53  34 1.55 104 1.55 102 1.55
  36  0.458  0.292  0.791-  35 1.53  33 1.53  31 1.54  37 1.55
  37  0.542  0.375  0.875-  42 1.54  88 1.54  72 1.54  36 1.55
  38  0.292  0.458  0.125- 161 1.54 179 1.54 112 1.54  39 1.54
  39  0.375  0.542  0.208-  44 1.54  48 1.54  38 1.54  50 1.56
  40  0.292  0.625  0.958- 206 1.54 161 1.54  41 1.54   3 1.54
  41  0.375  0.708  0.042- 211 1.54  44 1.54 207 1.54  40 1.54
  42  0.458  0.458  0.958-  37 1.54   3 1.54 179 1.54  43 1.54
  43  0.542  0.542  0.042-  44 1.54  42 1.54  58 1.54  56 1.54
  44  0.458  0.625  0.125-  39 1.54  41 1.54  43 1.54  45 1.54
  45  0.542  0.708  0.209- 164 1.54  44 1.54  11 1.55  66 1.55
  46  0.293  0.456  0.457- 107 1.50 120 1.54  47 1.55 196 1.56
  47  0.377  0.540  0.541-  51 1.53  46 1.55   7 1.55   5 1.55
  48  0.292  0.625  0.292-  49 1.54  39 1.54 196 1.54 190 1.54
  49  0.375  0.708  0.375- 188 1.54 164 1.54  48 1.54  51 1.54
  50  0.457  0.456  0.293- 107 1.50 183 1.54  30 1.55  39 1.56
  51  0.458  0.625  0.458-  30 1.53  47 1.53  49 1.54  29 1.55
  52  0.545  0.203  0.369- 106 1.49  94 1.50  96 1.50
  53  0.708  0.875  0.875-  28 1.54  13 1.54  84 1.54  15 1.54
  54  0.708  0.042  0.708- 102 1.54 105 1.54  79 1.54  84 1.55
  55  0.875  0.375  0.875-  78 1.54 134 1.54  60 1.54 199 1.54
  56  0.625  0.458  0.126-  57 1.54  89 1.54  43 1.54 183 1.54
  57  0.708  0.541  0.209-  66 1.54  68 1.54  56 1.54  62 1.55
  58  0.625  0.625  0.959-  59 1.54  73 1.54  43 1.54  10 1.54
  59  0.708  0.708  0.042-  58 1.54  11 1.54  62 1.54  15 1.54
  60  0.792  0.458  0.959-  61 1.54  73 1.54  89 1.54  55 1.54
  61  0.875  0.542  0.042-  60 1.54 129 1.54  62 1.54 131 1.54
  62  0.792  0.625  0.125-  63 1.54  61 1.54  59 1.54  57 1.55
  63  0.875  0.708  0.208-  62 1.54  23 1.54 193 1.54   2 1.54
  64  0.625  0.458  0.462-   1 1.47  65 1.54  97 1.55  30 1.55
  65  0.710  0.543  0.542-  70 1.53  64 1.54  74 1.54  76 1.54
  66  0.625  0.624  0.293-  57 1.54  67 1.54  45 1.55  30 1.55
  67  0.708  0.708  0.375-  70 1.54  19 1.54  23 1.54  66 1.54
  68  0.791  0.458  0.293-  57 1.54  69 1.54  93 1.55  97 1.55
  69  0.875  0.542  0.375-  70 1.54 191 1.54 193 1.54  68 1.54
  70  0.792  0.626  0.459-  65 1.53  71 1.54  69 1.54  67 1.54
  71  0.875  0.709  0.542-  70 1.54 143 1.54  82 1.54 202 1.54
  72  0.626  0.459  0.792-  73 1.54  37 1.54  81 1.54   8 1.54
  73  0.709  0.542  0.876-  72 1.54  58 1.54  60 1.54 201 1.54
  74  0.626  0.626  0.626-  75 1.54  29 1.54  65 1.54   8 1.54
  75  0.709  0.709  0.709-  74 1.54  28 1.54  82 1.54 201 1.54
  76  0.792  0.459  0.626-  77 1.54 101 1.54  81 1.54  65 1.54
  77  0.876  0.542  0.709-  76 1.54 202 1.54 199 1.54 201 1.54
  78  0.792  0.292  0.792-  81 1.53  55 1.54  80 1.54 103 1.54
  79  0.625  0.959  0.625-  54 1.54  20 1.54 173 1.54 167 1.54
  80  0.875  0.209  0.708-  78 1.54 123 1.54 121 1.54 105 1.54
  81  0.710  0.375  0.710-  78 1.53 104 1.54  72 1.54  76 1.54
  82  0.792  0.792  0.625-  83 1.54  75 1.54  20 1.54  71 1.54
  83  0.875  0.875  0.708-  82 1.54 153 1.54  84 1.54 151 1.54
  84  0.792  0.959  0.792-  85 1.54  83 1.54  53 1.54  54 1.55
  85  0.875  0.042  0.875-  84 1.54  90 1.54 121 1.54 137 1.54
  86  0.625  0.125  0.125-  14 1.54 181 1.54 189 1.54  87 1.54
  87  0.709  0.209  0.208-  92 1.54  98 1.54  86 1.54  96 1.56
  88  0.625  0.292  0.958-  37 1.54 103 1.54 181 1.54  89 1.54
  89  0.708  0.375  0.042-  92 1.54  88 1.54  60 1.54  56 1.54
  90  0.792  0.125  0.958-  85 1.54  14 1.54  91 1.54 103 1.54
  91  0.875  0.208  0.042- 134 1.54  92 1.54 135 1.54  90 1.54
  92  0.792  0.292  0.125-  87 1.54  91 1.54  89 1.54  93 1.54
  93  0.875  0.375  0.209- 115 1.54  92 1.54 129 1.55  68 1.55
  94  0.623  0.126  0.457-  52 1.50 167 1.54  95 1.55  22 1.56
  95  0.707  0.210  0.541- 100 1.53  94 1.55 104 1.55 105 1.55
  96  0.623  0.291  0.293-  52 1.50 183 1.54  97 1.55  87 1.56
  97  0.707  0.374  0.377- 100 1.53  96 1.55  64 1.55  68 1.55
  98  0.791  0.125  0.292-  99 1.54  22 1.54  87 1.54  18 1.54
  99  0.875  0.208  0.375- 113 1.54 115 1.54  98 1.54 100 1.54
 100  0.791  0.292  0.458-  97 1.53  95 1.53  99 1.54 101 1.55
 101  0.875  0.375  0.542- 123 1.54 191 1.54  76 1.54 100 1.55
 102  0.625  0.126  0.791-  54 1.54 103 1.54 175 1.55  35 1.55
 103  0.708  0.209  0.875-  78 1.54  88 1.54  90 1.54 102 1.54
 104  0.625  0.296  0.625-   1 1.47  81 1.54  95 1.55  35 1.55
 105  0.791  0.126  0.625-  54 1.54  80 1.54  26 1.55  95 1.55
 106  0.459  0.125  0.292-  52 1.49 163 1.54 177 1.54 189 1.55
 107  0.369  0.378  0.369- 108 1.49  46 1.50  50 1.50
 108  0.292  0.292  0.292- 107 1.49 177 1.54 118 1.54 112 1.55
 109  0.125  0.125  0.958- 110 1.54 158 1.54 138 1.54 122 1.54
 110  0.208  0.208  0.041- 109 1.54 111 1.54 178 1.54 176 1.54
 111  0.124  0.292  0.124- 112 1.53 132 1.54 110 1.54 159 1.54
 112  0.207  0.374  0.207- 111 1.53 195 1.54  38 1.54 108 1.55
 113  0.958  0.125  0.458-  26 1.54  99 1.54 114 1.54 146 1.54
 114  0.042  0.208  0.542- 125 1.54 123 1.54 113 1.54 119 1.54
 115  0.958  0.292  0.292-  93 1.54  99 1.54 116 1.54 159 1.54
 116  0.042  0.375  0.375- 195 1.54 191 1.54 115 1.54 119 1.54
 117  0.125  0.125  0.292- 118 1.54 142 1.54 146 1.54 159 1.54
 118  0.209  0.208  0.375- 119 1.54 117 1.54 184 1.54 108 1.54
 119  0.125  0.291  0.458- 118 1.54 120 1.54 116 1.54 114 1.54
 120  0.209  0.375  0.541-  32 1.54  46 1.54 119 1.54 203 1.54
 121  0.958  0.125  0.792-  85 1.54 154 1.54 122 1.54  80 1.54
 122  0.042  0.208  0.875- 134 1.54 127 1.54 109 1.54 121 1.54
 123  0.958  0.292  0.625- 101 1.54  80 1.54 114 1.54 124 1.54
 124  0.042  0.375  0.708- 127 1.54 123 1.54 199 1.54 203 1.54
 125  0.125  0.125  0.625- 154 1.54 114 1.54 150 1.54 126 1.54
 126  0.208  0.209  0.709- 127 1.54   4 1.54 125 1.54  32 1.56
 127  0.125  0.292  0.792- 126 1.54 122 1.54 124 1.54 128 1.54
 128  0.209  0.375  0.875- 178 1.54 127 1.54 160 1.55  27 1.55
 129  0.958  0.458  0.125-  61 1.54 130 1.54 132 1.55  93 1.55
 130  0.042  0.542  0.208- 129 1.54 195 1.54 193 1.54 162 1.54
 131  0.958  0.625  0.958- 133 1.54 215 1.54 200 1.54  61 1.54
 132  0.041  0.375  0.041- 111 1.54 134 1.54 129 1.55 160 1.55
 133  0.042  0.708  0.042- 131 1.54 162 1.54   2 1.54 139 1.54
 134  0.958  0.292  0.958- 132 1.54  55 1.54 122 1.54  91 1.54
 135  0.958  0.125  0.125- 159 1.54  18 1.54 138 1.54  91 1.54
 136  0.042  0.875  0.208-   2 1.54 145 1.54 147 1.54 141 1.54
 137  0.958  0.958  0.958- 138 1.54 152 1.54  16 1.54  85 1.54
 138  0.042  0.042  0.042- 137 1.54 135 1.54 109 1.54 141 1.54
 139  0.125  0.792  0.958- 140 1.54 152 1.54 133 1.54 206 1.54
 140  0.208  0.875  0.042- 139 1.54 207 1.54 209 1.54 141 1.54
 141  0.125  0.958  0.125- 142 1.54 140 1.54 136 1.54 138 1.54
 142  0.208  0.042  0.208- 141 1.54 117 1.54 176 1.54 186 1.54
 143  0.958  0.792  0.458- 144 1.54  71 1.54 194 1.54  24 1.54
 144  0.041  0.875  0.542- 149 1.54 143 1.54 153 1.55 155 1.55
 145  0.958  0.958  0.292- 146 1.54  18 1.54 136 1.54  24 1.54
 146  0.041  0.042  0.375- 145 1.54 149 1.54 113 1.54 117 1.54
 147  0.125  0.792  0.292- 148 1.54 190 1.54 136 1.54 194 1.54
 148  0.208  0.875  0.375- 147 1.54 149 1.54 188 1.54 186 1.54
 149  0.124  0.958  0.458- 150 1.53 144 1.54 148 1.54 146 1.54
 150  0.207  0.041  0.541- 149 1.53 125 1.54 170 1.54 184 1.55
 151  0.958  0.792  0.792- 152 1.54 215 1.54 214 1.54  83 1.54
 152  0.042  0.875  0.875- 151 1.54 157 1.54 137 1.54 139 1.54
 153  0.958  0.959  0.625-  83 1.54 154 1.54 144 1.55  26 1.55
 154  0.042  0.042  0.708- 153 1.54 125 1.54 121 1.54 157 1.54
 155  0.125  0.791  0.625- 214 1.54 156 1.54 144 1.55 198 1.55
 156  0.208  0.875  0.708- 155 1.54 170 1.54 168 1.54 157 1.54
 157  0.125  0.958  0.792- 158 1.54 152 1.54 156 1.54 154 1.54
 158  0.208  0.042  0.875- 157 1.54 109 1.54 209 1.54   4 1.54
 159  0.041  0.208  0.208- 135 1.54 111 1.54 115 1.54 117 1.54
 160  0.125  0.458  0.958- 200 1.54 161 1.54 132 1.55 128 1.55
 161  0.208  0.542  0.042- 160 1.54  38 1.54  40 1.54 162 1.54
 162  0.125  0.625  0.125- 190 1.54 133 1.54 161 1.54 130 1.54
 163  0.375  0.042  0.375- 166 1.54 186 1.54 184 1.54 106 1.54
 164  0.458  0.791  0.292-  45 1.54  49 1.54 165 1.54 208 1.54
 165  0.542  0.875  0.375-  21 1.54  19 1.54 164 1.54 166 1.54
 166  0.458  0.959  0.458- 163 1.54 167 1.54 165 1.54 187 1.54
 167  0.541  0.042  0.541-  34 1.54  94 1.54 166 1.54  79 1.54
 168  0.292  0.792  0.792- 206 1.54 156 1.54 169 1.54   6 1.54
 169  0.375  0.875  0.875- 211 1.54 174 1.54 209 1.54 168 1.54
 170  0.292  0.958  0.625- 156 1.54 187 1.54 150 1.54 171 1.54
 171  0.375  0.041  0.709- 174 1.54   4 1.54 170 1.54  34 1.56
 172  0.458  0.792  0.625-  29 1.54   6 1.54 187 1.54 173 1.54
 173  0.542  0.875  0.708- 174 1.54 172 1.54  28 1.54  79 1.54
 174  0.458  0.958  0.792- 171 1.54 169 1.54 173 1.54 175 1.54
 175  0.542  0.042  0.875- 180 1.54 174 1.54  13 1.55 102 1.55
 176  0.292  0.125  0.125- 177 1.54 142 1.54 210 1.54 110 1.54
 177  0.375  0.208  0.209- 182 1.54 176 1.54 108 1.54 106 1.54
 178  0.292  0.292  0.958- 128 1.54  31 1.54 179 1.54 110 1.54
 179  0.375  0.375  0.042-  38 1.54  42 1.54 178 1.54 182 1.54
 180  0.458  0.125  0.958- 175 1.54  31 1.54 181 1.54 210 1.54
 181  0.542  0.208  0.042-  86 1.54  88 1.54 180 1.54 182 1.54
 182  0.458  0.291  0.125- 177 1.54 183 1.54 181 1.54 179 1.54
 183  0.541  0.375  0.209-  50 1.54  96 1.54 182 1.54  56 1.54
 184  0.292  0.125  0.459- 185 1.49 163 1.54 118 1.54 150 1.55
 185  0.369  0.203  0.545- 184 1.49  32 1.50  34 1.50
 186  0.292  0.958  0.292- 163 1.54 142 1.54 208 1.54 148 1.54
 187  0.375  0.875  0.542- 170 1.54 172 1.54 188 1.54 166 1.54
 188  0.292  0.791  0.458- 198 1.54  49 1.54 187 1.54 148 1.54
 189  0.541  0.041  0.207- 213 1.53  21 1.54  86 1.54 106 1.55
 190  0.208  0.708  0.208- 162 1.54 147 1.54 207 1.54  48 1.54
 191  0.958  0.458  0.458- 101 1.54  69 1.54 116 1.54 192 1.54
 192  0.042  0.542  0.542- 197 1.54 191 1.54 202 1.54 203 1.54
 193  0.958  0.625  0.292-  63 1.54 130 1.54 194 1.54  69 1.54
 194  0.042  0.708  0.375- 143 1.54 197 1.54 147 1.54 193 1.54
 195  0.125  0.458  0.292- 130 1.54 116 1.54 112 1.54 196 1.54
 196  0.208  0.542  0.375- 197 1.54  48 1.54 195 1.54  46 1.56
 197  0.125  0.625  0.458- 196 1.54 194 1.54 192 1.54 198 1.54
 198  0.209  0.708  0.542- 188 1.54 197 1.54 155 1.55   5 1.55
 199  0.959  0.458  0.792- 200 1.54  77 1.54 124 1.54  55 1.54
 200  0.042  0.542  0.875- 199 1.54 160 1.54 205 1.54 131 1.54
 201  0.792  0.625  0.792- 215 1.54  77 1.54  73 1.54  75 1.54
 202  0.959  0.625  0.625- 214 1.54  77 1.54 192 1.54  71 1.54
 203  0.126  0.458  0.625- 204 1.54 124 1.54 192 1.54 120 1.54
 204  0.209  0.541  0.708-   5 1.54  27 1.54 203 1.54 205 1.55
 205  0.125  0.625  0.792- 206 1.54 200 1.54 214 1.54 204 1.55
 206  0.208  0.708  0.875- 205 1.54  40 1.54 168 1.54 139 1.54
 207  0.292  0.792  0.125- 208 1.54 190 1.54 140 1.54  41 1.54
 208  0.375  0.875  0.208- 207 1.54 213 1.54 164 1.54 186 1.54
 209  0.292  0.958  0.958- 210 1.54 158 1.54 140 1.54 169 1.54
 210  0.375  0.042  0.041- 209 1.54 213 1.54 180 1.54 176 1.54
 211  0.458  0.792  0.958- 212 1.54  10 1.54 169 1.54  41 1.54
 212  0.542  0.875  0.041- 213 1.54 211 1.54  11 1.55  13 1.55
 213  0.458  0.958  0.124- 189 1.53 212 1.54 208 1.54 210 1.54
 214  0.042  0.708  0.708- 202 1.54 155 1.54 205 1.54 151 1.54
 215  0.875  0.708  0.875- 201 1.54  15 1.54 131 1.54 151 1.54
 

IMPORTANT INFORMATION: All symmetrisations will be switched off!
NOSYMM: (Re-)initialisation of all symmetry stuff for point group C_1.


----------------------------------------------------------------------------------------

                                     Primitive cell                                     

  volume of cell :    1218.9516

  direct lattice vectors                    reciprocal lattice vectors
    10.682237625  0.000000000  0.000000000     0.093613345  0.000000012  0.000000012
    -0.000001422 10.682234764  0.000000000    -0.000000000  0.093613370  0.000000075
    -0.000001422 -0.000008535 10.682234764     0.000000000 -0.000000000  0.093613370

  length of vectors
    10.682237625 10.682234764 10.682234764     0.093613345  0.093613370  0.093613370

  position of ions in fractional coordinates (direct lattice)
     0.549480101  0.382813990  0.549480045
     0.958273534  0.791607551  0.125047140
     0.375268657  0.541598751  0.874852642
     0.291680421  0.125014416  0.791436011
     0.292652670  0.623988649  0.624737681
     0.375268654  0.708186639  0.708264735
     0.462380228  0.458188456  0.624854482
     0.542162636  0.542978092  0.709644112
     0.458657545  0.625534918  0.792200917
     0.541770626  0.708644858  0.875310869
     0.624955204  0.791446526  0.125235780
     0.708208778  0.874900112  0.208422892
     0.624955203  0.958569754  0.958112517
     0.708208781  0.041756888  0.041566110
     0.791652733  0.791771982  0.958437980
     0.874942445  0.875040325  0.041706326
     0.791504009  0.958353874  0.125019882
     0.874852594  0.041656136  0.208322126
     0.624916701  0.791740974  0.458381332
     0.708242753  0.875228293  0.541652801
     0.624804378  0.958284415  0.291597601
     0.708554982  0.041328655  0.375224590
     0.791523246  0.791547181  0.291739383
     0.874992896  0.874865138  0.375065230
     0.791681145  0.958262548  0.458219139
     0.874523248  0.042103480  0.541518758
     0.292652660  0.458071677  0.790654663
     0.625082359  0.792004451  0.791758806
     0.541783925  0.708402357  0.541783920
     0.540936982  0.539996869  0.376610123
     0.375044681  0.208378670  0.874712875
     0.293048817  0.290717216  0.623085974
     0.376610124  0.374270946  0.706662899
     0.457383236  0.126382849  0.623085970
     0.540936988  0.209944142  0.706662914
     0.458456453  0.291790466  0.791174917
     0.541783929  0.375117926  0.875068369
     0.291597590  0.458138373  0.124950414
     0.375224580  0.541888986  0.207994636
     0.291739386  0.624857249  0.958213174
     0.375065228  0.708326887  0.041531151
     0.458381336  0.458250708  0.958406972
     0.541652797  0.541576763  0.041894296
     0.458219129  0.625015152  0.124928549
     0.541518759  0.707857238  0.208769490
     0.293048824  0.456419950  0.457383236
     0.376610131  0.539996867  0.540936970
     0.291680426  0.624769997  0.291680429
     0.375044688  0.708046868  0.375044683
     0.457383234  0.456419950  0.293048825
     0.458456455  0.624508884  0.458456456
     0.544958515  0.202559291  0.369225301
     0.708305059  0.875284611  0.874965391
     0.707955526  0.042209476  0.707955522
     0.875310884  0.375104619  0.875310882
     0.624591119  0.457925125  0.125557350
     0.707955529  0.541289530  0.208875466
     0.625082362  0.625092805  0.958670449
     0.708305065  0.708299397  0.041950615
     0.791758802  0.458416361  0.958670459
     0.874965397  0.541639073  0.041950614
     0.791502708  0.624836703  0.125364417
     0.874885377  0.708219375  0.208476603
     0.624854513  0.458188471  0.462380219
     0.709644127  0.542978100  0.542162633
     0.624737681  0.623988653  0.292652669
     0.708264738  0.708186641  0.375268652
     0.790654670  0.458071680  0.292652658
     0.874852649  0.541598754  0.375268654
     0.792200919  0.625534923  0.458657547
     0.875310873  0.708644860  0.541770625
     0.625503222  0.458837204  0.792434538
     0.708614135  0.541948137  0.875503579
     0.625503216  0.625768528  0.625503214
     0.708614133  0.708837563  0.708614131
     0.792434541  0.458837206  0.625503222
     0.875503584  0.541948138  0.708614133
     0.792200934  0.291991551  0.792200937
     0.624591118  0.958891337  0.624591123
     0.874852657  0.208602646  0.708264746
     0.709644144  0.375496635  0.709644137
     0.791758801  0.792004451  0.625082362
     0.874965392  0.875284611  0.708305058
     0.791502699  0.958698411  0.791502704
     0.874885373  0.041810612  0.874885373
     0.624804374  0.124931579  0.124950415
     0.708554987  0.208558570  0.207994639
     0.624916702  0.291715344  0.958406968
     0.708242751  0.374986794  0.041894301
     0.791523255  0.125073377  0.958213179
     0.874992897  0.208399217  0.041531149
     0.791681149  0.291553137  0.124928545
     0.874523237  0.374852746  0.208769469
     0.623085968  0.126382858  0.457383246
     0.706662933  0.209944142  0.540936983
     0.623085971  0.290717224  0.293048827
     0.706662920  0.374270953  0.376610115
     0.791436009  0.125014417  0.291680425
     0.874712885  0.208378671  0.375044676
     0.791174925  0.291790466  0.458456454
     0.875068378  0.375117928  0.541783926
     0.624737679  0.125986680  0.790654676
     0.708264746  0.208602647  0.874852653
     0.624854530  0.295714219  0.624854514
     0.790654679  0.125986679  0.624737683
     0.458693795  0.125156379  0.291822386
     0.369225281  0.378292492  0.369225272
     0.291822359  0.292027810  0.291822362
     0.124950642  0.124952472  0.958196968
     0.208236037  0.208254544  0.041461979
     0.124464911  0.291648192  0.124464915
     0.207388342  0.374467748  0.207388341
     0.958130751  0.125117624  0.458276603
     0.041679377  0.208352617  0.541529774
     0.958130750  0.291610609  0.291783627
     0.041679382  0.374863771  0.375018620
     0.125022212  0.125058362  0.291724363
     0.208510817  0.208214615  0.374880621
     0.125334205  0.291476925  0.458142921
     0.209054167  0.374522344  0.541188371
     0.958213173  0.125073377  0.791523260
     0.041531149  0.208399217  0.874992896
     0.958406965  0.291715345  0.624916707
     0.041894303  0.374986795  0.708242751
     0.124950405  0.124931575  0.624804379
     0.207994631  0.208558566  0.708554988
     0.124928537  0.291553136  0.791681153
     0.208769473  0.374852744  0.874523230
     0.958112511  0.458289199  0.125235765
     0.041566111  0.541542778  0.208422893
     0.958437969  0.624986738  0.958437972
     0.041429377  0.374869507  0.041429374
     0.041706326  0.708276446  0.041706323
     0.958313485  0.291690681  0.958313490
     0.958196964  0.124952471  0.124950645
     0.041613281  0.874947265  0.208324670
     0.958273536  0.958381142  0.958273540
     0.041613271  0.041658679  0.041613265
     0.125047136  0.791607550  0.958273537
     0.208324673  0.874947266  0.041613277
     0.124966221  0.958300222  0.124966224
     0.208292242  0.041626243  0.208292240
     0.958313483  0.791647478  0.458356690
     0.041429382  0.874763359  0.541535517
     0.958196969  0.958284643  0.291618475
     0.041461996  0.041570042  0.374920541
     0.124950645  0.791530974  0.291618482
     0.208236041  0.874795972  0.374920544
     0.124464921  0.957798914  0.458314185
     0.207388345  0.040722331  0.541133759
     0.958437975  0.791771981  0.791652737
     0.041706329  0.875040325  0.874942443
     0.958112511  0.958569751  0.624955207
     0.041566109  0.041756885  0.708208782
     0.125235776  0.791446521  0.624955207
     0.208422892  0.874900109  0.708208778
     0.125019878  0.958353873  0.791504011
     0.208322128  0.041656136  0.874852591
     0.041461983  0.208254543  0.208236033
     0.125235764  0.458289198  0.958112511
     0.208422895  0.541542778  0.041566109
     0.125019879  0.624837998  0.125019882
     0.374880618  0.041844828  0.374880623
     0.458276609  0.791464753  0.291783638
     0.541529785  0.875013381  0.375018627
     0.458142918  0.958668222  0.458142924
     0.541188376  0.042388182  0.541188373
     0.291739381  0.791547176  0.791523248
     0.375065231  0.874865137  0.874992894
     0.291597592  0.958284408  0.624804382
     0.375224587  0.041328647  0.708554983
     0.458381330  0.791740973  0.624916702
     0.541652802  0.875228291  0.708242751
     0.458219134  0.958262544  0.791681151
     0.541518760  0.042103481  0.874523243
     0.291724359  0.125058363  0.125022217
     0.374880620  0.208214619  0.208510818
     0.291783625  0.291610608  0.958130751
     0.375018622  0.374863771  0.041679378
     0.458276599  0.125117625  0.958130754
     0.541529775  0.208352618  0.041679375
     0.458142915  0.291476925  0.125334210
     0.541188375  0.374522346  0.209054165
     0.291822358  0.125156354  0.458693808
     0.369225271  0.202559252  0.544958514
     0.291724358  0.958356212  0.291724362
     0.375018627  0.875013378  0.541529783
     0.291783635  0.791464751  0.458276612
     0.541133759  0.040722347  0.207388360
     0.208322136  0.708186584  0.208322134
     0.958406971  0.458250711  0.458381339
     0.041894301  0.541576764  0.541652796
     0.958213173  0.624857252  0.291739388
     0.041531152  0.708326888  0.375065228
     0.124950410  0.458138373  0.291597594
     0.207994636  0.541888986  0.375224579
     0.124928545  0.625015151  0.458219133
     0.208769492  0.707857236  0.541518756
     0.958670455  0.458416362  0.791758807
     0.041950619  0.541639073  0.874965395
     0.791903751  0.625237747  0.791903754
     0.958670445  0.625092806  0.625082367
     0.125557347  0.457925125  0.624591122
     0.208875471  0.541289529  0.707955524
     0.125364415  0.624836702  0.791502711
     0.208476604  0.708219373  0.874885375
     0.291618478  0.791530975  0.124950649
     0.374920544  0.874795975  0.208236040
     0.291618471  0.958284643  0.958196975
     0.374920542  0.041570045  0.041461994
     0.458356685  0.791647479  0.958313489
     0.541535519  0.874763364  0.041429383
     0.458314179  0.957798921  0.124464932
     0.041950619  0.708299396  0.708305063
     0.875132086  0.708466077  0.875132084

  ion indices of the primitive-cell ions
   primitive index   ion index
                 1           1
                 2           2
                 3           3
                 4           4
                 5           5
                 6           6
                 7           7
                 8           8
                 9           9
                10          10
                11          11
                12          12
                13          13
                14          14
                15          15
                16          16
                17          17
                18          18
                19          19
                20          20
                21          21
                22          22
                23          23
                24          24
                25          25
                26          26
                27          27
                28          28
                29          29
                30          30
                31          31
                32          32
                33          33
                34          34
                35          35
                36          36
                37          37
                38          38
                39          39
                40          40
                41          41
                42          42
                43          43
                44          44
                45          45
                46          46
                47          47
                48          48
                49          49
                50          50
                51          51
                52          52
                53          53
                54          54
                55          55
                56          56
                57          57
                58          58
                59          59
                60          60
                61          61
                62          62
                63          63
                64          64
                65          65
                66          66
                67          67
                68          68
                69          69
                70          70
                71          71
                72          72
                73          73
                74          74
                75          75
                76          76
                77          77
                78          78
                79          79
                80          80
                81          81
                82          82
                83          83
                84          84
                85          85
                86          86
                87          87
                88          88
                89          89
                90          90
                91          91
                92          92
                93          93
                94          94
                95          95
                96          96
                97          97
                98          98
                99          99
               100         100
               101         101
               102         102
               103         103
               104         104
               105         105
               106         106
               107         107
               108         108
               109         109
               110         110
               111         111
               112         112
               113         113
               114         114
               115         115
               116         116
               117         117
               118         118
               119         119
               120         120
               121         121
               122         122
               123         123
               124         124
               125         125
               126         126
               127         127
               128         128
               129         129
               130         130
               131         131
               132         132
               133         133
               134         134
               135         135
               136         136
               137         137
               138         138
               139         139
               140         140
               141         141
               142         142
               143         143
               144         144
               145         145
               146         146
               147         147
               148         148
               149         149
               150         150
               151         151
               152         152
               153         153
               154         154
               155         155
               156         156
               157         157
               158         158
               159         159
               160         160
               161         161
               162         162
               163         163
               164         164
               165         165
               166         166
               167         167
               168         168
               169         169
               170         170
               171         171
               172         172
               173         173
               174         174
               175         175
               176         176
               177         177
               178         178
               179         179
               180         180
               181         181
               182         182
               183         183
               184         184
               185         185
               186         186
               187         187
               188         188
               189         189
               190         190
               191         191
               192         192
               193         193
               194         194
               195         195
               196         196
               197         197
               198         198
               199         199
               200         200
               201         201
               202         202
               203         203
               204         204
               205         205
               206         206
               207         207
               208         208
               209         209
               210         210
               211         211
               212         212
               213         213
               214         214
               215         215

----------------------------------------------------------------------------------------

 
 
 KPOINTS: Num irrep kpoints: 1                    

Automatic generation of k-mesh.
 Grid dimensions read from file:
 generate k-points for:    1    1    1

 Generating k-lattice:

  Cartesian coordinates                     Fractional coordinates (reciprocal lattice)
     0.093613345  0.000000012  0.000000012     1.000000000  0.000000000 -0.000000000
    -0.000000000  0.093613370  0.000000075     0.000000000  1.000000000  0.000000000
     0.000000000 -0.000000000  0.093613370     0.000000000  0.000000000  1.000000000

  Length of vectors
     0.093613345  0.093613370  0.093613370

  Shift w.r.t. Gamma in fractional coordinates (k-lattice)
     0.000000000  0.000000000  0.000000000

 
 Subroutine IBZKPT returns following result:
 ===========================================
 
 Found      1 irreducible k-points:
 
 Following reciprocal coordinates:
            Coordinates               Weight
  0.000000  0.000000  0.000000      1.000000
 
 Following cartesian coordinates:
            Coordinates               Weight
  0.000000  0.000000  0.000000      1.000000
 


--------------------------------------------------------------------------------------------------------




 Dimension of arrays:
   k-points           NKPTS =      1   k-points in BZ     NKDIM =      1   number of bands    NBANDS=    648
   number of dos      NEDOS =    301   number of ions     NIONS =    215
   non local maximal  LDIM  =      4   non local SUM 2l+1 LMDIM =      8
   total plane-waves  NPLWV = 216000
   max r-space proj   IRMAX =   1489   max aug-charges    IRDMAX=   2380
   dimension x,y,z NGX =    60 NGY =   60 NGZ =   60
   dimension x,y,z NGXF=   120 NGYF=  120 NGZF=  120
   support grid    NGXF=   120 NGYF=  120 NGZF=  120
   ions per type =               1 214
   NGX,Y,Z   is equivalent  to a cutoff of   9.34,  9.34,  9.34 a.u.
   NGXF,Y,Z  is equivalent  to a cutoff of  18.68, 18.68, 18.68 a.u.

 SYSTEM =  unknown system                          
 POSCAR =  x3                                      

 Startparameter for this run:
   NWRITE =      2    write-flag & timer
   PREC   = normal    normal or accurate (medium, high low for compatibility)
   ISTART =      0    job   : 0-new  1-cont  2-samecut
   ICHARG =      2    charge: 1-file 2-atom 10-const
   ISPIN  =      2    spin polarized calculation?
   LNONCOLLINEAR =      F non collinear calculations
   LSORBIT =      F    spin-orbit coupling
   INIWAV =      1    electr: 0-lowe 1-rand  2-diag
   LASPH  =      T    aspherical Exc in radial PAW
 Electronic Relaxation 1
   ENCUT  =  520.0 eV  38.22 Ry    6.18 a.u.  19.86 19.86 19.86*2*pi/ulx,y,z
   ENINI  =  520.0     initial cutoff
   ENAUG  =  644.9 eV  augmentation charge cutoff
   NELM   =    100;   NELMIN=  2; NELMDL=  0     # of ELM steps 
   EDIFF  = 0.1E-04   stopping-criterion for ELM
   LREAL  =      T    real-space projection
   NLSPLINE    = F    spline interpolate recip. space projectors
   LCOMPAT=      F    compatible to vasp.4.4
   GGA_COMPAT  = T    GGA compatible to vasp.4.4-vasp.4.6
   LMAXPAW     = -100 max onsite density
   LMAXMIX     =    2 max onsite mixed and CHGCAR
   VOSKOWN=      0    Vosko Wilk Nusair interpolation
   ROPT   =   -0.00050  -0.00050
 Ionic relaxation
   EDIFFG = -.1E-01   stopping-criterion for IOM
   NSW    =    500    number of steps for IOM
   NBLOCK =      1;   KBLOCK =    500    inner block; outer block 
   IBRION =      2    ionic relax: 0-MD 1-quasi-New 2-CG
   NFREE  =      1    steps in history (QN), initial steepest desc. (CG)
   ISIF   =      2    stress and relaxation
   IWAVPR =     11    prediction:  0-non 1-charg 2-wave 3-comb
   ISYM   =     -1    0-nonsym 1-usesym 2-fastsym
   LCORR  =      T    Harris-Foulkes like correction to forces

   POTIM  = 0.5000    time-step for ionic-motion
   TEIN   =    0.0    initial temperature
   TEBEG  =    0.0;   TEEND  =   0.0 temperature during run
   SMASS  =  -3.00    Nose mass-parameter (am)
   estimated Nose-frequenzy (Omega)   =  0.10E-29 period in steps = 0.13E+47 mass=  -0.261E-26a.u.
   SCALEE = 1.0000    scale energy and forces
   NPACO  =    256;   APACO  = 10.0  distance and # of slots for P.C.
   PSTRESS=    0.0 pullay stress

  Mass of Ions in am
   POMASS =  14.00 12.01
  Ionic Valenz
   ZVAL   =   5.00  4.00
  Atomic Wigner-Seitz radii
   RWIGS  =  -1.00 -1.00
  virtual crystal weights 
   VCA    =   1.00  1.00
   NELECT =     862.0000    total number of electrons
   NUPDOWN=      -1.0000    fix difference up-down

 DOS related values:
   EMIN   =  10.00;   EMAX   =-10.00  energy-range for DOS
   EFERMI =   0.00
   ISMEAR =     0;   SIGMA  =   0.10  broadening in eV -4-tet -1-fermi 0-gaus

 Electronic relaxation 2 (details)
   IALGO  =     38    algorithm
   LDIAG  =      T    sub-space diagonalisation (order eigenvalues)
   LSUBROT=      F    optimize rotation matrix (better conditioning)
   TURBO    =      0    0=normal 1=particle mesh
   IRESTART =      0    0=no restart 2=restart with 2 vectors
   NREBOOT  =      0    no. of reboots
   NMIN     =      0    reboot dimension
   EREF     =   0.00    reference energy to select bands
   IMIX   =      4    mixing-type and parameters
     AMIX     =   0.40;   BMIX     =  1.00
     AMIX_MAG =   1.60;   BMIX_MAG =  1.00
     AMIN     =   0.10
     WC   =   100.;   INIMIX=   1;  MIXPRE=   1;  MAXMIX= -45

 Intra band minimization:
   WEIMIN = 0.0010     energy-eigenvalue tresh-hold
   EBREAK =  0.39E-08  absolut break condition
   DEPER  =   0.30     relativ break condition  

   TIME   =   0.40     timestep for ELM

  volume/ion in A,a.u.               =       5.67        38.26
  Fermi-wavevector in a.u.,A,eV,Ry     =   1.458529  2.756220 28.943770  2.127307
  Thomas-Fermi vector in A             =   2.575203
 
 Write flags
   LWAVE        =      T    write WAVECAR
   LDOWNSAMPLE  =      F    k-point downsampling of WAVECAR
   LCHARG       =      T    write CHGCAR
   LVTOT        =      F    write LOCPOT, total local potential
   LVHAR        =      F    write LOCPOT, Hartree potential only
   LELF         =      F    write electronic localiz. function (ELF)
   LORBIT       =     11    0 simple, 1 ext, 2 COOP (PROOUT), +10 PAW based schemes


 Dipole corrections
   LMONO  =      F    monopole corrections only (constant potential shift)
   LDIPOL =      F    correct potential (dipole corrections)
   IDIPOL =      0    1-x, 2-y, 3-z, 4-all directions 
   EPSILON=  1.0000000 bulk dielectric constant

 Exchange correlation treatment:
   GGA     =    --    GGA type
   LEXCH   =     8    internal setting for exchange type
   LIBXC   =     F    Libxc                    
   VOSKOWN =     0    Vosko Wilk Nusair interpolation
   LHFCALC =     F    Hartree Fock is set to
   LHFONE  =     F    Hartree Fock one center treatment
   AEXX    =    0.0000 exact exchange contribution

 Linear response parameters
   LEPSILON=     F    determine dielectric tensor
   LRPA    =     F    only Hartree local field effects (RPA)
   LNABLA  =     F    use nabla operator in PAW spheres
   LVEL    =     F    velocity operator in full k-point grid
   CSHIFT  =0.1000    complex shift for real part using Kramers Kronig
   OMEGAMAX=  -1.0    maximum frequency
   DEG_THRESHOLD= 0.2000000E-02 threshold for treating states as degnerate
   RTIME   =   -0.100 relaxation time in fs
  (WPLASMAI=    0.000 imaginary part of plasma frequency in eV, 0.658/RTIME)
   DFIELD  = 0.0000000 0.0000000 0.0000000 field for delta impulse in time
 
  Optional k-point grid parameters
   LKPOINTS_OPT  =     F    use optional k-point grid
   KPOINTS_OPT_MODE=     1    mode for optional k-point grid
 
 Orbital magnetization related:
   ORBITALMAG=     F  switch on orbital magnetization
   LCHIMAG   =     F  perturbation theory with respect to B field
   DQ        =  0.001000  dq finite difference perturbation B field
   LLRAUG    =     F  two centre corrections for induced B field



--------------------------------------------------------------------------------------------------------


 conjugate gradient relaxation of ions
 charge density and potential will be updated during run
 spin polarized calculation
 Variant of blocked Davidson
 Davidson routine will perform the subspace rotation
 perform sub-space diagonalisation
    after iterative eigenvector-optimisation
 modified Broyden-mixing scheme, WC =      100.0
 initial mixing is a Kerker type mixing with AMIX =  0.4000 and BMIX =      1.0000
 Hartree-type preconditioning will be used
 using additional bands           217
 real space projection scheme for non local part
 calculate Harris-corrections to forces 
   (improved forces if not selfconsistent)
 use gradient corrections 
 use of overlap-Matrix (Vanderbilt PP)
 Gauss-broadening in eV      SIGMA  =   0.10


--------------------------------------------------------------------------------------------------------


  energy-cutoff  :      520.00
  volume of cell :     1218.95
      direct lattice vectors                 reciprocal lattice vectors
    10.682237625  0.000000000  0.000000000     0.093613345  0.000000012  0.000000012
    -0.000001422 10.682234764  0.000000000    -0.000000000  0.093613370  0.000000075
    -0.000001422 -0.000008535 10.682234764     0.000000000 -0.000000000  0.093613370

  length of vectors
    10.682237625 10.682234764 10.682234764     0.093613345  0.093613370  0.093613370


 
 k-points in units of 2pi/SCALE and weight: Num irrep kpoints: 1                    
   0.00000000  0.00000000  0.00000000       1.000
 
 k-points in reciprocal lattice and weights: Num irrep kpoints: 1                    
   0.00000000  0.00000000  0.00000000       1.000
 
 position of ions in fractional coordinates (direct lattice) 
   0.54948010  0.38281399  0.54948004
   0.95827353  0.79160755  0.12504714
   0.37526866  0.54159875  0.87485264
   0.29168042  0.12501442  0.79143601
   0.29265267  0.62398865  0.62473768
   0.37526865  0.70818664  0.70826474
   0.46238023  0.45818846  0.62485448
   0.54216264  0.54297809  0.70964411
   0.45865755  0.62553492  0.79220092
   0.54177063  0.70864486  0.87531087
   0.62495520  0.79144653  0.12523578
   0.70820878  0.87490011  0.20842289
   0.62495520  0.95856975  0.95811252
   0.70820878  0.04175689  0.04156611
   0.79165273  0.79177198  0.95843798
   0.87494245  0.87504032  0.04170633
   0.79150401  0.95835387  0.12501988
   0.87485259  0.04165614  0.20832213
   0.62491670  0.79174097  0.45838133
   0.70824275  0.87522829  0.54165280
   0.62480438  0.95828441  0.29159760
   0.70855498  0.04132865  0.37522459
   0.79152325  0.79154718  0.29173938
   0.87499290  0.87486514  0.37506523
   0.79168115  0.95826255  0.45821914
   0.87452325  0.04210348  0.54151876
   0.29265266  0.45807168  0.79065466
   0.62508236  0.79200445  0.79175881
   0.54178393  0.70840236  0.54178392
   0.54093698  0.53999687  0.37661012
   0.37504468  0.20837867  0.87471287
   0.29304882  0.29071722  0.62308597
   0.37661012  0.37427095  0.70666290
   0.45738324  0.12638285  0.62308597
   0.54093699  0.20994414  0.70666291
   0.45845645  0.29179047  0.79117492
   0.54178393  0.37511793  0.87506837
   0.29159759  0.45813837  0.12495041
   0.37522458  0.54188899  0.20799464
   0.29173939  0.62485725  0.95821317
   0.37506523  0.70832689  0.04153115
   0.45838134  0.45825071  0.95840697
   0.54165280  0.54157676  0.04189430
   0.45821913  0.62501515  0.12492855
   0.54151876  0.70785724  0.20876949
   0.29304882  0.45641995  0.45738324
   0.37661013  0.53999687  0.54093697
   0.29168043  0.62477000  0.29168043
   0.37504469  0.70804687  0.37504468
   0.45738323  0.45641995  0.29304883
   0.45845646  0.62450888  0.45845646
   0.54495851  0.20255929  0.36922530
   0.70830506  0.87528461  0.87496539
   0.70795553  0.04220948  0.70795552
   0.87531088  0.37510462  0.87531088
   0.62459112  0.45792513  0.12555735
   0.70795553  0.54128953  0.20887547
   0.62508236  0.62509281  0.95867045
   0.70830507  0.70829940  0.04195062
   0.79175880  0.45841636  0.95867046
   0.87496540  0.54163907  0.04195061
   0.79150271  0.62483670  0.12536442
   0.87488538  0.70821937  0.20847660
   0.62485451  0.45818847  0.46238022
   0.70964413  0.54297810  0.54216263
   0.62473768  0.62398865  0.29265267
   0.70826474  0.70818664  0.37526865
   0.79065467  0.45807168  0.29265266
   0.87485265  0.54159875  0.37526865
   0.79220092  0.62553492  0.45865755
   0.87531087  0.70864486  0.54177062
   0.62550322  0.45883720  0.79243454
   0.70861413  0.54194814  0.87550358
   0.62550322  0.62576853  0.62550321
   0.70861413  0.70883756  0.70861413
   0.79243454  0.45883721  0.62550322
   0.87550358  0.54194814  0.70861413
   0.79220093  0.29199155  0.79220094
   0.62459112  0.95889134  0.62459112
   0.87485266  0.20860265  0.70826475
   0.70964414  0.37549664  0.70964414
   0.79175880  0.79200445  0.62508236
   0.87496539  0.87528461  0.70830506
   0.79150270  0.95869841  0.79150270
   0.87488537  0.04181061  0.87488537
   0.62480437  0.12493158  0.12495042
   0.70855499  0.20855857  0.20799464
   0.62491670  0.29171534  0.95840697
   0.70824275  0.37498679  0.04189430
   0.79152325  0.12507338  0.95821318
   0.87499290  0.20839922  0.04153115
   0.79168115  0.29155314  0.12492854
   0.87452324  0.37485275  0.20876947
   0.62308597  0.12638286  0.45738325
   0.70666293  0.20994414  0.54093698
   0.62308597  0.29071722  0.29304883
   0.70666292  0.37427095  0.37661011
   0.79143601  0.12501442  0.29168043
   0.87471288  0.20837867  0.37504468
   0.79117493  0.29179047  0.45845645
   0.87506838  0.37511793  0.54178393
   0.62473768  0.12598668  0.79065468
   0.70826475  0.20860265  0.87485265
   0.62485453  0.29571422  0.62485451
   0.79065468  0.12598668  0.62473768
   0.45869380  0.12515638  0.29182239
   0.36922528  0.37829249  0.36922527
   0.29182236  0.29202781  0.29182236
   0.12495064  0.12495247  0.95819697
   0.20823604  0.20825454  0.04146198
   0.12446491  0.29164819  0.12446491
   0.20738834  0.37446775  0.20738834
   0.95813075  0.12511762  0.45827660
   0.04167938  0.20835262  0.54152977
   0.95813075  0.29161061  0.29178363
   0.04167938  0.37486377  0.37501862
   0.12502221  0.12505836  0.29172436
   0.20851082  0.20821462  0.37488062
   0.12533421  0.29147692  0.45814292
   0.20905417  0.37452234  0.54118837
   0.95821317  0.12507338  0.79152326
   0.04153115  0.20839922  0.87499290
   0.95840696  0.29171534  0.62491671
   0.04189430  0.37498679  0.70824275
   0.12495040  0.12493157  0.62480438
   0.20799463  0.20855857  0.70855499
   0.12492854  0.29155314  0.79168115
   0.20876947  0.37485274  0.87452323
   0.95811251  0.45828920  0.12523576
   0.04156611  0.54154278  0.20842289
   0.95843797  0.62498674  0.95843797
   0.04142938  0.37486951  0.04142937
   0.04170633  0.70827645  0.04170632
   0.95831349  0.29169068  0.95831349
   0.95819696  0.12495247  0.12495065
   0.04161328  0.87494726  0.20832467
   0.95827354  0.95838114  0.95827354
   0.04161327  0.04165868  0.04161327
   0.12504714  0.79160755  0.95827354
   0.20832467  0.87494727  0.04161328
   0.12496622  0.95830022  0.12496622
   0.20829224  0.04162624  0.20829224
   0.95831348  0.79164748  0.45835669
   0.04142938  0.87476336  0.54153552
   0.95819697  0.95828464  0.29161848
   0.04146200  0.04157004  0.37492054
   0.12495064  0.79153097  0.29161848
   0.20823604  0.87479597  0.37492054
   0.12446492  0.95779891  0.45831418
   0.20738835  0.04072233  0.54113376
   0.95843798  0.79177198  0.79165274
   0.04170633  0.87504033  0.87494244
   0.95811251  0.95856975  0.62495521
   0.04156611  0.04175689  0.70820878
   0.12523578  0.79144652  0.62495521
   0.20842289  0.87490011  0.70820878
   0.12501988  0.95835387  0.79150401
   0.20832213  0.04165614  0.87485259
   0.04146198  0.20825454  0.20823603
   0.12523576  0.45828920  0.95811251
   0.20842290  0.54154278  0.04156611
   0.12501988  0.62483800  0.12501988
   0.37488062  0.04184483  0.37488062
   0.45827661  0.79146475  0.29178364
   0.54152978  0.87501338  0.37501863
   0.45814292  0.95866822  0.45814292
   0.54118838  0.04238818  0.54118837
   0.29173938  0.79154718  0.79152325
   0.37506523  0.87486514  0.87499289
   0.29159759  0.95828441  0.62480438
   0.37522459  0.04132865  0.70855498
   0.45838133  0.79174097  0.62491670
   0.54165280  0.87522829  0.70824275
   0.45821913  0.95826254  0.79168115
   0.54151876  0.04210348  0.87452324
   0.29172436  0.12505836  0.12502222
   0.37488062  0.20821462  0.20851082
   0.29178363  0.29161061  0.95813075
   0.37501862  0.37486377  0.04167938
   0.45827660  0.12511762  0.95813075
   0.54152978  0.20835262  0.04167938
   0.45814292  0.29147692  0.12533421
   0.54118837  0.37452235  0.20905416
   0.29182236  0.12515635  0.45869381
   0.36922527  0.20255925  0.54495851
   0.29172436  0.95835621  0.29172436
   0.37501863  0.87501338  0.54152978
   0.29178364  0.79146475  0.45827661
   0.54113376  0.04072235  0.20738836
   0.20832214  0.70818658  0.20832213
   0.95840697  0.45825071  0.45838134
   0.04189430  0.54157676  0.54165280
   0.95821317  0.62485725  0.29173939
   0.04153115  0.70832689  0.37506523
   0.12495041  0.45813837  0.29159759
   0.20799464  0.54188899  0.37522458
   0.12492854  0.62501515  0.45821913
   0.20876949  0.70785724  0.54151876
   0.95867045  0.45841636  0.79175881
   0.04195062  0.54163907  0.87496540
   0.79190375  0.62523775  0.79190375
   0.95867044  0.62509281  0.62508237
   0.12555735  0.45792512  0.62459112
   0.20887547  0.54128953  0.70795552
   0.12536442  0.62483670  0.79150271
   0.20847660  0.70821937  0.87488538
   0.29161848  0.79153098  0.12495065
   0.37492054  0.87479597  0.20823604
   0.29161847  0.95828464  0.95819697
   0.37492054  0.04157005  0.04146199
   0.45835668  0.79164748  0.95831349
   0.54153552  0.87476336  0.04142938
   0.45831418  0.95779892  0.12446493
   0.04195062  0.70829940  0.70830506
   0.87513209  0.70846608  0.87513208
 
 position of ions in cartesian coordinates  (Angst):
   5.86967569  4.08930423  5.86967484
  10.23650430  8.45613663  1.33578291
   4.00870695  5.78547754  9.34538131
   3.11579827  1.33542659  8.45430527
   3.12618359  6.66558790  6.67359458
   4.00870692  7.56500989  7.56585018
   4.93925393  4.89447132  6.67484227
   5.79150832  5.80021339  7.58058501
   4.89948687  6.68210408  8.46247617
   5.78732032  7.56990327  9.35027619
   6.67591869  8.45441653  1.33779800
   7.56525291  9.34588662  2.22642226
   6.67591725 10.23965898 10.23478284
   7.56525437  0.44605653  0.44401894
   8.45662013  8.45788602 10.23825951
   9.34634181  9.34738582  0.44551677
   8.45503237 10.23736000  1.33549173
   9.34538294  0.44497885  2.22534586
   6.67550691  8.45755905  4.89653700
   7.56561537  9.34938948  5.78606238
   6.67430706 10.23661660  3.11491403
   7.56895209  0.44147919  4.00823716
   8.45523786  8.45549032  3.11642858
   9.34688026  9.34551159  4.00653483
   8.45692410 10.23638159  4.89480441
   9.34186431  0.44975464  5.78463051
   3.12618348  4.89322244  8.44595873
   6.67727604  8.46037072  8.45775344
   5.78746285  7.56731566  5.78746302
   5.77841608  5.76837012  4.02303775
   4.00631486  2.22594241  9.34388828
   3.13041579  3.10550423  6.65595065
   4.02303730  3.99804408  7.54873899
   4.88587534  1.35004594  6.65595061
   5.77841614  2.24266658  7.54873915
   4.89733923  3.11696751  8.45151620
   5.78746290  4.00709028  9.34768575
   3.11491392  4.89394059  1.33474965
   4.00823706  5.78858359  2.22184753
   3.11642719  6.67486365 10.23585808
   4.00653483  7.56651374  0.44364550
   4.89653634  4.89513346 10.23792828
   5.78606306  5.78524977  0.44752471
   4.89480455  6.67655752  1.33451609
   5.78463076  7.56149541  2.23012470
   3.13041587  4.87558115  4.88587510
   4.02303738  5.76836868  5.77841571
   3.11579832  6.67393729  3.11579882
   4.00631493  7.56351967  4.00631535
   4.88587533  4.87558255  3.13041635
   4.89733926  6.67114660  4.89733949
   5.82137553  2.16378275  3.94415135
   7.56628046  9.34998823  9.34658572
   7.56254809  0.45088548  7.56254709
   9.35027708  4.00694813  9.35027634
   6.67202992  4.89166262  1.34123309
   7.56254812  5.78218005  2.23125676
   6.67727608  6.67737992 10.24074280
   7.56628195  7.56622009  0.44812632
   8.45775365  4.89690301 10.24074290
   9.34658746  5.78591538  0.44812631
   8.45501894  6.67465129  1.33917214
   9.34573219  7.56536384  2.22699602
   6.67484308  4.89447286  4.93925405
   7.58058565  5.80021491  5.79150853
   6.67359506  6.66559079  3.12618452
   7.56585069  7.56501275  4.00870784
   8.44596000  4.89322673  3.12618440
   9.34538258  5.78548183  4.00870786
   8.46247693  6.68210699  4.89948760
   9.35027696  7.56990613  5.78732100
   6.68177227  4.90139997  8.46497177
   7.56958256  5.78920976  9.35233477
   6.68177221  6.68460099  6.68177218
   7.56958254  7.57196321  7.56958251
   8.46497252  4.90140142  6.68177226
   9.35233555  5.78921119  7.56958253
   8.46247709  3.11911553  8.46247639
   6.67202849 10.24309705  6.67202900
   9.34538267  2.22833639  7.56585029
   7.58058583  4.01113715  7.58058527
   8.45775364  8.46037214  6.67727654
   9.34658598  9.34998965  7.56628091
   8.45501743 10.24103473  8.45501770
   9.34573215  0.44662331  9.34573094
   6.67430844  1.33454739  1.33474967
   7.56895215  2.22786983  2.22184756
   6.67550693  3.11616361 10.23792823
   7.56561677  4.00569661  0.44752475
   8.45523795  1.33605500 10.23585813
   9.34688169  2.22616900  0.44364549
   8.45692557  3.11443798  1.33451604
   9.34186419  4.00426325  2.23012447
   6.65595154  1.35004745  4.88587521
   7.54874030  2.24266799  5.77841584
   6.65595157  3.10550713  3.13041637
   7.54874016  3.99804697  4.02303766
   8.45430692  1.33543086  3.11579878
   9.34389006  2.22594668  4.00631528
   8.45151749  3.11697035  4.89733947
   9.34768704  4.00709315  5.78746309
   6.67359504  1.34581254  8.44595887
   7.56585077  2.22833498  9.34538142
   6.67484326  3.15888338  6.67484261
   8.44596009  1.34581395  6.67359459
   4.89987553  1.33694733  3.11731523
   3.94415112  4.04100606  3.94415104
   3.11731495  3.11950714  3.11731498
   1.33475090  1.33476346 10.23568496
   2.22442648  2.22462358  0.44290659
   1.32956317  3.11545339  1.32956344
   2.21537073  4.00015062  2.21537095
  10.23497953  1.33653192  4.89541826
   0.44522794  2.22566694  5.78474818
  10.23497952  3.11505049  3.11690120
   0.44522799  4.00437961  4.00603694
   1.33551639  1.33590030  3.11626813
   2.22736126  2.22419420  4.00456280
   1.33884870  3.11362103  4.89399024
   2.23316498  4.00073099  5.78110123
  10.23585951  1.33605642  8.45523728
   0.44364406  2.22616190  9.34687954
  10.23792963  3.11616646  6.67550697
   0.44752336  4.00569093  7.56561533
   1.33474885  1.33454308  6.67430705
   2.22184677  2.22786551  7.56895073
   1.33451478  3.11443229  8.45692394
   2.23012334  4.00425755  9.34186245
  10.23478468  4.89555174  1.33779784
   0.44401801  5.78488531  2.22642227
  10.23825988  6.67624688 10.23825943
   0.44255786  4.00444373  0.44255830
   0.44551581  7.56597492  0.44551674
  10.23693059  3.11590015 10.23692968
  10.23568730  1.33477057  1.33475213
   0.44452141  9.34639031  2.22537303
  10.23650289 10.23764417 10.23650292
   0.44452274  0.44500743  0.44452267
   1.33578073  8.45612951 10.23650289
   2.22537235  9.34639175  0.44452279
   1.33491733 10.23678688  1.33491855
   2.22502687  0.44465952  2.22502661
  10.23693056  8.45656030  4.89627376
   0.44255649  9.34442295  5.78480952
  10.23568594 10.23661904  3.11513701
   0.44290630  0.44405775  4.00498923
   1.33475094  8.45531720  3.11513709
   2.22442510  9.34477275  4.00498927
   1.32956185 10.23142895  4.89581972
   2.21537076  0.43500088  5.78051786
  10.23825995  8.45788743  8.45662038
   0.44551442  9.34737871  9.34634058
  10.23478326 10.23966179  6.67591824
   0.44401798  0.44605081  7.56525247
   1.33779630  8.45441221  6.67591823
   2.22642061  9.34588231  7.56525243
   1.33548956 10.23735430  8.45503166
   2.22534517  0.44497315  9.34538076
   0.44290616  2.22462214  2.22442619
   1.33779618  4.89554463 10.23478278
   2.22642207  5.78488673  0.44401893
   1.33549099  6.67466511  1.33549173
   4.00456325  0.44699307  4.00456282
   4.89541809  8.45460981  3.11690132
   5.78474806  9.34709515  4.00603701
   4.89398951 10.24071510  4.89399027
   5.78110200  0.45279589  5.78110126
   3.11642714  8.45548601  8.45523715
   4.00653343  9.34550731  9.34687951
   3.11491252 10.23661369  6.67430709
   4.00823714  0.44147626  7.56895067
   4.89653628  8.45755761  6.67550692
   5.78606169  9.34938804  7.56561533
   4.89480318 10.23637871  8.45692391
   5.78463077  0.44975181  9.34186259
   3.11626857  1.33590172  1.33551668
   4.00456327  2.22419567  2.22736151
   3.11690024  3.11504480 10.23497762
   4.00603744  4.00438245  0.44522890
   4.89541799  1.33652766 10.23497765
   5.78474938  2.22567122  0.44522887
   4.89399090  3.11362387  1.33884945
   5.78110199  4.00073384  2.23316567
   3.11731494  1.33694565  4.89987494
   3.94415102  2.16378083  5.82137478
   3.11626714 10.23738356  3.11626813
   4.00603607  9.34709370  5.78474828
   3.11690035  8.45460836  4.89541836
   5.78051905  0.43500390  2.21537115
   2.22534526  7.56501357  2.22534594
  10.23792970  4.89513776  4.89653707
   0.44752334  5.78524552  5.78606233
  10.23585951  6.67486937  3.11642863
   0.44364409  7.56651090  4.00653482
   1.33474891  4.89393917  3.11491396
   2.22184683  5.78858216  4.00823704
   1.33451486  6.67655466  4.89480435
   2.23012355  7.56149255  5.78463048
  10.24074382  4.89690444  8.45775345
   0.44812446  5.78590827  9.34658576
   8.45930202  6.67892963  8.45930182
  10.24074371  6.67738276  6.67727659
   1.34123188  4.89165835  6.67202900
   2.23125564  5.78217578  7.56254711
   1.33917046  6.67464558  8.45501778
   2.22699437  7.56535814  9.34573097
   3.11513657  8.45531863  1.33475216
   4.00498880  9.34477419  2.22442627
   3.11513508 10.23661335 10.23568504
   4.00499021  0.44406063  0.44290676
   4.89627254  8.45655604 10.23692966
   5.78480979  9.34442726  0.44255840
   4.89581942 10.23143187  1.32956362
   0.44812447  7.56621439  7.56628097
   9.34836664  7.56799349  9.34836637
 


--------------------------------------------------------------------------------------------------------


 k-point   1 :   0.0000 0.0000 0.0000  plane waves:   32795

 maximum and minimum number of plane-waves per node :     32795    32795

 maximum number of plane-waves:     32795
 maximum index in each direction: 
   IXMAX=   19   IYMAX=   19   IZMAX=   19
   IXMIN=  -19   IYMIN=  -19   IZMIN=  -19


 serial   3D FFT for wavefunctions
 parallel 3D FFT for charge:
    minimum data exchange during FFTs selected (reduces bandwidth)


 total amount of memory used by VASP MPI-rank0   294396. kBytes
=======================================================================

   base      :      30000. kBytes
   nonlr-proj:      16121. kBytes
   fftplans  :      15609. kBytes
   grid      :      52416. kBytes
   one-center:       1320. kBytes
   wavefun   :     178930. kBytes
 
     INWAV:  cpu time      0.0000: real time      0.0000
 Broyden mixing: mesh for mixing (old mesh)
   NGX = 39   NGY = 39   NGZ = 39
  (NGX  =120   NGY  =120   NGZ  =120)
  gives a total of  59319 points

 initial charge density was supplied:
 charge density of overlapping atoms calculated
 number of electron     861.0000000 magnetization     215.0000000
 keeping initial charge density in first step


--------------------------------------------------------------------------------------------------------


 Maximum index for non-local projection operator          1361
 Maximum index for augmentation-charges           548 (set IRDMAX)


--------------------------------------------------------------------------------------------------------


 First call to EWALD:  gamma=   0.166
 Maximum number of real-space cells 3x 3x 3
 Maximum number of reciprocal cells 3x 3x 3

    FEWALD:  cpu time      0.0639: real time      0.0639


--------------------------------------- Iteration      1(   1)  ---------------------------------------


    POTLOK:  cpu time      0.7207: real time      0.6596
    SETDIJ:  cpu time     10.9959: real time     10.9886
     EDDAV:  cpu time      1.3243: real time      1.3233
       DOS:  cpu time      0.0008: real time      0.0008
    --------------------------------------------
      LOOP:  cpu time     13.0418: real time     12.9723

 eigenvalue-minimisations  :  2592
 total energy-change (2. order) : 0.2595159E+04  (-0.4575287E+05)
 number of electron     861.0000000 magnetization     215.0000000
 augmentation part      861.0000000 magnetization     215.0000000

 Free energy of the ion-electron system (eV)
  ---------------------------------------------------
  alpha Z        PSCENC =      3094.29412155
  Ewald energy   TEWEN  =    -37397.27007761
  -Hartree energ DENC   =     -1996.89907573
  -exchange      EXHF   =         0.00000000
  -V(xc)+E(xc)   XCENC  =      3119.46101238
  PAW double counting   =      8187.82506601    -8433.47535200
  entropy T*S    EENTRO =        -0.07372131
  eigenvalues    EBANDS =      4266.89775224
  atomic energy  EATOM  =     31754.39923918
  Solvation  Ediel_sol  =         0.00000000
  ---------------------------------------------------
  free energy    TOTEN  =      2595.15896470 eV

  energy without entropy =     2595.23268602  energy(sigma->0) =     2595.19582536


--------------------------------------------------------------------------------------------------------




--------------------------------------- Iteration      1(   2)  ---------------------------------------


     EDDAV:  cpu time      1.4399: real time      1.4390
       DOS:  cpu time      0.0005: real time      0.0004
    --------------------------------------------
      LOOP:  cpu time      1.4403: real time      1.4394

 eigenvalue-minimisations  :  3112
 total energy-change (2. order) :-0.4279593E+04  (-0.4032278E+04)
 number of electron     861.0000000 magnetization     215.0000000
 augmentation part      861.0000000 magnetization     215.0000000

 Free energy of the ion-electron system (eV)
  ---------------------------------------------------
  alpha Z        PSCENC =      3094.29412155
  Ewald energy   TEWEN  =    -37397.27007761
  -Hartree energ DENC   =     -1996.89907573
  -exchange      EXHF   =         0.00000000
  -V(xc)+E(xc)   XCENC  =      3119.46101238
  PAW double counting   =      8187.82506601    -8433.47535200
  entropy T*S    EENTRO =        -0.00000000
  eigenvalues    EBANDS =       -12.76898663
  atomic energy  EATOM  =     31754.39923918
  Solvation  Ediel_sol  =         0.00000000
  ---------------------------------------------------
  free energy    TOTEN  =     -1684.43405285 eV

  energy without entropy =    -1684.43405285  energy(sigma->0) =    -1684.43405285


--------------------------------------------------------------------------------------------------------




--------------------------------------- Iteration      1(   3)  ---------------------------------------


     EDDAV:  cpu time      1.5515: real time      1.5505
       DOS:  cpu time      0.0005: real time      0.0005
    --------------------------------------------
      LOOP:  cpu time      1.5520: real time      1.5510

 eigenvalue-minimisations  :  3360
 total energy-change (2. order) :-0.2269813E+03  (-0.2244704E+03)
 number of electron     861.0000000 magnetization     215.0000000
 augmentation part      861.0000000 magnetization     215.0000000

 Free energy of the ion-electron system (eV)
  ---------------------------------------------------
  alpha Z        PSCENC =      3094.29412155
  Ewald energy   TEWEN  =    -37397.27007761
  -Hartree energ DENC   =     -1996.89907573
  -exchange      EXHF   =         0.00000000
  -V(xc)+E(xc)   XCENC  =      3119.46101238
  PAW double counting   =      8187.82506601    -8433.47535200
  entropy T*S    EENTRO =        -0.00000000
  eigenvalues    EBANDS =      -239.75025254
  atomic energy  EATOM  =     31754.39923918
  Solvation  Ediel_sol  =         0.00000000
  ---------------------------------------------------
  free energy    TOTEN  =     -1911.41531876 eV

  energy without entropy =    -1911.41531876  energy(sigma->0) =    -1911.41531876


--------------------------------------------------------------------------------------------------------




--------------------------------------- Iteration      1(   4)  ---------------------------------------


     EDDAV:  cpu time      1.5342: real time      1.5332
       DOS:  cpu time      0.0005: real time      0.0005
    --------------------------------------------
      LOOP:  cpu time      1.5347: real time      1.5336

 eigenvalue-minimisations  :  3336
 total energy-change (2. order) :-0.3783023E+01  (-0.3764163E+01)
 number of electron     861.0000000 magnetization     215.0000000
 augmentation part      861.0000000 magnetization     215.0000000

 Free energy of the ion-electron system (eV)
  ---------------------------------------------------
  alpha Z        PSCENC =      3094.29412155
  Ewald energy   TEWEN  =    -37397.27007761
  -Hartree energ DENC   =     -1996.89907573
  -exchange      EXHF   =         0.00000000
  -V(xc)+E(xc)   XCENC  =      3119.46101238
  PAW double counting   =      8187.82506601    -8433.47535200
  entropy T*S    EENTRO =        -0.00000000
  eigenvalues    EBANDS =      -243.53327526
  atomic energy  EATOM  =     31754.39923918
  Solvation  Ediel_sol  =         0.00000000
  ---------------------------------------------------
  free energy    TOTEN  =     -1915.19834148 eV

  energy without entropy =    -1915.19834148  energy(sigma->0) =    -1915.19834148


--------------------------------------------------------------------------------------------------------




--------------------------------------- Iteration      1(   5)  ---------------------------------------


     EDDAV:  cpu time      1.5372: real time      1.5362
       DOS:  cpu time      0.0005: real time      0.0005
    CHARGE:  cpu time      0.0854: real time      0.0853
    MIXING:  cpu time      0.0084: real time      0.0085
    --------------------------------------------
      LOOP:  cpu time      1.6316: real time      1.6304

 eigenvalue-minimisations  :  3344
 total energy-change (2. order) :-0.8121542E-01  (-0.8109482E-01)
 number of electron     861.9998993 magnetization     127.4007700
 augmentation part       21.8419006 magnetization     125.4541390

 Broyden mixing:
  rms(total) = 0.86721E+01    rms(broyden)= 0.86714E+01
  rms(prec ) = 0.93920E+01
  weight for this iteration     100.00

 Free energy of the ion-electron system (eV)
  ---------------------------------------------------
  alpha Z        PSCENC =      3094.29412155
  Ewald energy   TEWEN  =    -37397.27007761
  -Hartree energ DENC   =     -1996.89907573
  -exchange      EXHF   =         0.00000000
  -V(xc)+E(xc)   XCENC  =      3119.46101238
  PAW double counting   =      8187.82506601    -8433.47535200
  entropy T*S    EENTRO =        -0.00000000
  eigenvalues    EBANDS =      -243.61449068
  atomic energy  EATOM  =     31754.39923918
  Solvation  Ediel_sol  =         0.00000000
  ---------------------------------------------------
  free energy    TOTEN  =     -1915.27955691 eV

  energy without entropy =    -1915.27955691  energy(sigma->0) =    -1915.27955691


--------------------------------------------------------------------------------------------------------




--------------------------------------- Iteration      1(   6)  ---------------------------------------


    POTLOK:  cpu time      0.0189: real time      0.0189
    SETDIJ:  cpu time     11.0110: real time     11.0037
     EDDAV:  cpu time      1.4126: real time      1.4116
       DOS:  cpu time      0.0005: real time      0.0005
    CHARGE:  cpu time      0.0797: real time      0.0796
    MIXING:  cpu time      0.0087: real time      0.0087
    --------------------------------------------
      LOOP:  cpu time     12.5314: real time     12.5231

 eigenvalue-minimisations  :  2984
 total energy-change (2. order) : 0.1619599E+02  (-0.9020646E+01)
 number of electron     861.9999014 magnetization      56.2067123
 augmentation part       21.3248005 magnetization      53.8948800

 Broyden mixing:
  rms(total) = 0.46618E+01    rms(broyden)= 0.46618E+01
  rms(prec ) = 0.50571E+01
  weight for this iteration     100.00

 eigenvalues of (default mixing * dielectric matrix)
  average eigenvalue GAMMA=   0.9709
  0.9709

 Free energy of the ion-electron system (eV)
  ---------------------------------------------------
  alpha Z        PSCENC =      3094.29412155
  Ewald energy   TEWEN  =    -37397.27007761
  -Hartree energ DENC   =     -2413.18404866
  -exchange      EXHF   =         0.00000000
  -V(xc)+E(xc)   XCENC  =      3151.27387899
  PAW double counting   =     10681.44161265   -10944.68385157
  entropy T*S    EENTRO =        -0.00000000
  eigenvalues    EBANDS =       174.64555729
  atomic energy  EATOM  =     31754.39923918
  Solvation  Ediel_sol  =         0.00000000
  ---------------------------------------------------
  free energy    TOTEN  =     -1899.08356818 eV

  energy without entropy =    -1899.08356818  energy(sigma->0) =    -1899.08356818


--------------------------------------------------------------------------------------------------------




--------------------------------------- Iteration      1(   7)  ---------------------------------------


    POTLOK:  cpu time      0.0187: real time      0.0187
    SETDIJ:  cpu time     11.0054: real time     10.9982
     EDDAV:  cpu time      1.3983: real time      1.3973
       DOS:  cpu time      0.0005: real time      0.0005
    CHARGE:  cpu time      0.0789: real time      0.0789
    MIXING:  cpu time      0.0088: real time      0.0088
    --------------------------------------------
      LOOP:  cpu time     12.5107: real time     12.5024

 eigenvalue-minimisations  :  2944
 total energy-change (2. order) :-0.3027442E+02  (-0.5928402E+01)
 number of electron     861.9999032 magnetization       8.0426659
 augmentation part       20.9130135 magnetization       6.0440865

 Broyden mixing:
  rms(total) = 0.20055E+01    rms(broyden)= 0.20055E+01
  rms(prec ) = 0.21263E+01
[...]
    4ORBIT:  cpu time      0.0000: real time      0.0000



 total charge

# of ion       s       p       d       tot
------------------------------------------
    1        1.209   2.704   0.000   3.913
    2        0.830   1.755   0.000   2.585
    3        0.830   1.755   0.000   2.585
    4        0.831   1.755   0.000   2.586
    5        0.829   1.749   0.000   2.578
    6        0.830   1.755   0.000   2.585
    7        0.825   1.719   0.000   2.544
    8        0.833   1.764   0.000   2.598
    9        0.832   1.762   0.000   2.594
   10        0.831   1.759   0.000   2.590
   11        0.830   1.754   0.000   2.584
   12        0.831   1.756   0.000   2.587
   13        0.830   1.754   0.000   2.584
   14        0.831   1.756   0.000   2.587
   15        0.830   1.754   0.000   2.585
   16        0.831   1.756   0.000   2.587
   17        0.830   1.755   0.000   2.586
   18        0.831   1.756   0.000   2.587
   19        0.831   1.756   0.000   2.587
   20        0.830   1.755   0.000   2.585
   21        0.831   1.754   0.000   2.585
   22        0.832   1.748   0.000   2.581
   23        0.831   1.756   0.000   2.586
   24        0.831   1.757   0.000   2.587
   25        0.831   1.759   0.000   2.590
   26        0.830   1.752   0.000   2.582
   27        0.829   1.749   0.000   2.578
   28        0.831   1.757   0.000   2.587
   29        0.830   1.756   0.000   2.586
   30        0.830   1.749   0.000   2.579
   31        0.830   1.756   0.000   2.587
   32        0.831   1.754   0.000   2.584
   33        0.830   1.749   0.000   2.579
   34        0.831   1.754   0.000   2.584
   35        0.830   1.749   0.000   2.579
   36        0.831   1.760   0.000   2.591
   37        0.830   1.756   0.000   2.586
   38        0.831   1.754   0.000   2.585
   39        0.832   1.748   0.000   2.581
   40        0.831   1.756   0.000   2.586
   41        0.831   1.757   0.000   2.587
   42        0.831   1.756   0.000   2.587
   43        0.830   1.755   0.000   2.585
   44        0.831   1.759   0.000   2.590
   45        0.830   1.752   0.000   2.582
   46        0.831   1.754   0.000   2.584
   47        0.830   1.749   0.000   2.579
   48        0.831   1.755   0.000   2.586
   49        0.830   1.756   0.000   2.587
   50        0.831   1.754   0.000   2.584
   51        0.831   1.760   0.000   2.591
   52        0.839   1.733   0.000   2.572
   53        0.831   1.757   0.000   2.587
   54        0.831   1.756   0.000   2.587
   55        0.831   1.759   0.000   2.590
   56        0.830   1.754   0.000   2.584
   57        0.831   1.756   0.000   2.587
   58        0.831   1.757   0.000   2.587
   59        0.831   1.757   0.000   2.587
   60        0.831   1.757   0.000   2.587
   61        0.831   1.757   0.000   2.587
   62        0.830   1.755   0.000   2.585
   63        0.831   1.756   0.000   2.587
   64        0.825   1.719   0.000   2.544
   65        0.833   1.764   0.000   2.598
   66        0.829   1.749   0.000   2.578
   67        0.830   1.755   0.000   2.585
   68        0.829   1.749   0.000   2.578
   69        0.830   1.755   0.000   2.585
   70        0.832   1.762   0.000   2.594
   71        0.831   1.759   0.000   2.590
   72        0.831   1.757   0.000   2.588
   73        0.831   1.759   0.000   2.590
   74        0.831   1.757   0.000   2.588
   75        0.831   1.759   0.000   2.590
   76        0.831   1.757   0.000   2.588
   77        0.831   1.759   0.000   2.590
   78        0.832   1.762   0.000   2.594
   79        0.830   1.754   0.000   2.584
   80        0.830   1.755   0.000   2.585
   81        0.833   1.764   0.000   2.598
   82        0.831   1.757   0.000   2.587
   83        0.831   1.757   0.000   2.587
   84        0.830   1.755   0.000   2.585
   85        0.831   1.756   0.000   2.587
   86        0.831   1.754   0.000   2.585
   87        0.832   1.748   0.000   2.581
   88        0.831   1.756   0.000   2.587
   89        0.830   1.755   0.000   2.585
   90        0.831   1.756   0.000   2.586
   91        0.831   1.757   0.000   2.587
   92        0.831   1.759   0.000   2.590
   93        0.830   1.752   0.000   2.582
   94        0.831   1.754   0.000   2.584
   95        0.830   1.749   0.000   2.579
   96        0.831   1.754   0.000   2.584
   97        0.830   1.749   0.000   2.579
   98        0.831   1.755   0.000   2.586
   99        0.830   1.756   0.000   2.587
  100        0.831   1.760   0.000   2.591
  101        0.830   1.756   0.000   2.586
  102        0.829   1.749   0.000   2.578
  103        0.830   1.755   0.000   2.585
  104        0.825   1.719   0.000   2.544
  105        0.829   1.749   0.000   2.578
  106        0.832   1.764   0.000   2.595
  107        0.839   1.733   0.000   2.572
  108        0.832   1.764   0.000   2.595
  109        0.831   1.756   0.000   2.587
  110        0.830   1.755   0.000   2.585
  111        0.831   1.761   0.000   2.593
  112        0.833   1.753   0.000   2.586
  113        0.830   1.756   0.000   2.587
  114        0.831   1.756   0.000   2.586
  115        0.830   1.756   0.000   2.587
  116        0.831   1.756   0.000   2.586
  117        0.830   1.755   0.000   2.585
  118        0.831   1.754   0.000   2.586
  119        0.831   1.757   0.000   2.587
  120        0.832   1.756   0.000   2.587
  121        0.831   1.756   0.000   2.586
  122        0.831   1.757   0.000   2.587
  123        0.831   1.756   0.000   2.587
  124        0.830   1.755   0.000   2.585
  125        0.831   1.754   0.000   2.585
  126        0.832   1.748   0.000   2.581
  127        0.831   1.759   0.000   2.590
  128        0.830   1.752   0.000   2.582
  129        0.830   1.754   0.000   2.584
  130        0.831   1.756   0.000   2.587
  131        0.830   1.754   0.000   2.585
  132        0.831   1.757   0.000   2.588
  133        0.831   1.756   0.000   2.587
  134        0.832   1.761   0.000   2.593
  135        0.831   1.756   0.000   2.587
  136        0.831   1.756   0.000   2.587
  137        0.830   1.755   0.000   2.585
  138        0.831   1.756   0.000   2.587
  139        0.830   1.755   0.000   2.585
  140        0.831   1.756   0.000   2.587
  141        0.830   1.756   0.000   2.586
  142        0.831   1.755   0.000   2.585
  143        0.832   1.761   0.000   2.593
  144        0.831   1.757   0.000   2.588
  145        0.831   1.756   0.000   2.587
  146        0.830   1.755   0.000   2.585
  147        0.831   1.756   0.000   2.587
  148        0.830   1.755   0.000   2.585
  149        0.831   1.761   0.000   2.593
  150        0.833   1.753   0.000   2.586
  151        0.830   1.754   0.000   2.585
  152        0.831   1.756   0.000   2.587
  153        0.830   1.754   0.000   2.584
  154        0.831   1.756   0.000   2.587
  155        0.830   1.754   0.000   2.584
  156        0.831   1.756   0.000   2.587
  157        0.830   1.755   0.000   2.586
  158        0.831   1.756   0.000   2.587
  159        0.830   1.755   0.000   2.585
  160        0.830   1.754   0.000   2.584
  161        0.831   1.756   0.000   2.587
  162        0.830   1.755   0.000   2.586
  163        0.831   1.754   0.000   2.586
  164        0.830   1.756   0.000   2.587
  165        0.831   1.756   0.000   2.586
  166        0.831   1.757   0.000   2.587
  167        0.832   1.756   0.000   2.587
  168        0.831   1.756   0.000   2.586
  169        0.831   1.757   0.000   2.587
  170        0.831   1.754   0.000   2.585
  171        0.832   1.748   0.000   2.581
  172        0.831   1.756   0.000   2.587
  173        0.830   1.755   0.000   2.585
  174        0.831   1.759   0.000   2.590
  175        0.830   1.752   0.000   2.582
  176        0.830   1.755   0.000   2.585
  177        0.831   1.754   0.000   2.586
  178        0.830   1.756   0.000   2.587
  179        0.831   1.756   0.000   2.586
  180        0.830   1.756   0.000   2.587
  181        0.831   1.756   0.000   2.586
  182        0.831   1.757   0.000   2.587
  183        0.832   1.756   0.000   2.587
  184        0.832   1.764   0.000   2.595
  185        0.839   1.733   0.000   2.572
  186        0.830   1.755   0.000   2.585
  187        0.831   1.756   0.000   2.586
  188        0.830   1.756   0.000   2.587
  189        0.833   1.753   0.000   2.586
  190        0.831   1.756   0.000   2.587
  191        0.831   1.756   0.000   2.587
  192        0.830   1.755   0.000   2.585
  193        0.831   1.756   0.000   2.586
  194        0.831   1.757   0.000   2.587
  195        0.831   1.754   0.000   2.585
  196        0.832   1.748   0.000   2.581
  197        0.831   1.759   0.000   2.590
  198        0.830   1.752   0.000   2.582
  199        0.831   1.757   0.000   2.587
  200        0.831   1.757   0.000   2.587
  201        0.830   1.756   0.000   2.586
  202        0.831   1.757   0.000   2.587
  203        0.830   1.754   0.000   2.584
  204        0.831   1.756   0.000   2.587
  205        0.830   1.755   0.000   2.585
  206        0.831   1.756   0.000   2.587
  207        0.831   1.756   0.000   2.587
  208        0.830   1.755   0.000   2.585
  209        0.831   1.756   0.000   2.587
  210        0.830   1.755   0.000   2.585
  211        0.832   1.761   0.000   2.593
  212        0.831   1.757   0.000   2.588
  213        0.831   1.761   0.000   2.593
  214        0.831   1.757   0.000   2.587
  215        0.831   1.757   0.000   2.587
--------------------------------------------------
tot        178.985 378.224   0.000 557.209



 magnetization (x)

# of ion       s       p       d       tot
------------------------------------------
    1       -0.001   0.001   0.000  -0.001
    2       -0.000  -0.000   0.000  -0.000
    3        0.000   0.000   0.000   0.000
    4       -0.000  -0.001   0.000  -0.001
    5       -0.000  -0.000   0.000  -0.000
    6        0.000   0.000   0.000   0.000
    7        0.000   0.001   0.000   0.001
    8        0.000   0.000   0.000   0.000
    9        0.000   0.000   0.000   0.000
   10        0.000   0.000   0.000   0.000
   11       -0.000  -0.000   0.000  -0.000
   12        0.000   0.001   0.000   0.001
   13       -0.000  -0.000   0.000  -0.000
   14        0.000   0.001   0.000   0.001
   15       -0.000   0.000   0.000   0.000
   16        0.000   0.001   0.000   0.001
   17       -0.000  -0.000   0.000  -0.000
   18        0.000   0.001   0.000   0.001
   19       -0.000  -0.000   0.000  -0.000
   20       -0.000   0.000   0.000   0.000
   21       -0.000  -0.001   0.000  -0.001
   22        0.004   0.018   0.000   0.023
   23       -0.000  -0.000   0.000  -0.000
   24        0.000   0.002   0.000   0.002
   25        0.001   0.003   0.000   0.004
   26        0.000   0.000   0.000   0.000
   27       -0.000  -0.000   0.000  -0.000
   28        0.000  -0.000   0.000  -0.000
   29        0.000   0.001   0.000   0.001
   30        0.001   0.004   0.000   0.005
   31        0.000   0.001   0.000   0.001
   32       -0.002  -0.005   0.000  -0.006
   33        0.001   0.004   0.000   0.005
   34       -0.002  -0.005   0.000  -0.006
   35        0.001   0.004   0.000   0.005
   36       -0.000  -0.001   0.000  -0.001
   37        0.000   0.001   0.000   0.001
   38       -0.000  -0.001   0.000  -0.001
   39        0.004   0.018   0.000   0.023
   40       -0.000  -0.000   0.000  -0.000
   41        0.000   0.002   0.000   0.002
   42       -0.000  -0.000   0.000  -0.000
   43       -0.000   0.000   0.000   0.000
   44        0.001   0.003   0.000   0.004
   45        0.000   0.000   0.000   0.000
   46       -0.002  -0.005   0.000  -0.006
   47        0.001   0.004   0.000   0.005
   48       -0.000  -0.001   0.000  -0.001
   49        0.000   0.001   0.000   0.001
   50       -0.002  -0.005   0.000  -0.006
   51       -0.000  -0.001   0.000  -0.001
   52        0.042   0.285   0.000   0.327
   53        0.000   0.000   0.000   0.000
   54        0.000   0.000   0.000   0.000
   55        0.000   0.000   0.000   0.000
   56       -0.000  -0.001   0.000  -0.001
   57        0.000   0.000   0.000   0.000
   58        0.000  -0.000   0.000  -0.000
   59        0.000   0.000   0.000   0.000
   60        0.000  -0.000   0.000  -0.000
   61        0.000   0.000   0.000   0.000
   62        0.000   0.000   0.000   0.000
   63        0.000   0.000   0.000   0.000
   64        0.000   0.001   0.000   0.001
   65        0.000   0.000   0.000   0.000
   66       -0.000  -0.000   0.000  -0.000
   67        0.000   0.000   0.000   0.000
   68       -0.000  -0.000   0.000  -0.000
   69        0.000   0.000   0.000   0.000
   70        0.000   0.000   0.000   0.000
   71        0.000   0.000   0.000   0.000
   72       -0.000  -0.000   0.000  -0.000
   73        0.000  -0.000   0.000   0.000
   74       -0.000  -0.000   0.000  -0.000
   75        0.000  -0.000   0.000   0.000
   76       -0.000  -0.000   0.000  -0.000
   77        0.000  -0.000   0.000   0.000
   78        0.000   0.000   0.000   0.000
   79       -0.000  -0.001   0.000  -0.001
   80        0.000   0.000   0.000   0.000
   81        0.000   0.000   0.000   0.000
   82        0.000  -0.000   0.000  -0.000
   83        0.000   0.000   0.000   0.000
   84        0.000   0.000   0.000   0.000
   85        0.000   0.000   0.000   0.000
   86       -0.000  -0.001   0.000  -0.001
   87        0.004   0.018   0.000   0.023
   88       -0.000  -0.000   0.000  -0.000
   89       -0.000   0.000   0.000   0.000
   90       -0.000  -0.000   0.000  -0.000
   91        0.000   0.002   0.000   0.002
   92        0.001   0.003   0.000   0.004
   93        0.000   0.000   0.000   0.000
   94       -0.002  -0.005   0.000  -0.006
   95        0.001   0.004   0.000   0.005
   96       -0.002  -0.005   0.000  -0.006
   97        0.001   0.004   0.000   0.005
   98       -0.000  -0.001   0.000  -0.001
   99        0.000   0.001   0.000   0.001
  100       -0.000  -0.001   0.000  -0.001
  101        0.000   0.001   0.000   0.001
  102       -0.000  -0.000   0.000  -0.000
  103        0.000   0.000   0.000   0.000
  104        0.000   0.001   0.000   0.001
  105       -0.000  -0.000   0.000  -0.000
  106       -0.002  -0.009   0.000  -0.012
  107        0.042   0.285   0.000   0.327
  108       -0.002  -0.009   0.000  -0.012
  109       -0.000  -0.000   0.000  -0.000
  110        0.000   0.000   0.000   0.000
  111        0.000   0.002   0.000   0.002
  112        0.004   0.017   0.000   0.021
  113       -0.000  -0.000   0.000  -0.000
  114        0.000   0.002   0.000   0.002
  115       -0.000  -0.000   0.000  -0.000
  116        0.000   0.002   0.000   0.002
  117       -0.000  -0.000   0.000  -0.001
  118        0.001   0.008   0.000   0.009
  119       -0.000  -0.001   0.000  -0.001
  120        0.001   0.007   0.000   0.008
  121       -0.000  -0.000   0.000  -0.000
  122        0.000   0.002   0.000   0.002
  123       -0.000  -0.000   0.000  -0.000
  124       -0.000   0.000   0.000   0.000
  125       -0.000  -0.001   0.000  -0.001
  126        0.004   0.018   0.000   0.023
  127        0.001   0.003   0.000   0.004
  128        0.000   0.000   0.000   0.000
  129       -0.000  -0.000   0.000  -0.000
  130        0.000   0.001   0.000   0.001
  131       -0.000   0.000   0.000   0.000
  132        0.000   0.001   0.000   0.002
  133        0.000   0.001   0.000   0.001
  134       -0.000   0.002   0.000   0.002
  135       -0.000  -0.000   0.000  -0.000
  136        0.000   0.000   0.000   0.000
  137       -0.000  -0.000   0.000  -0.000
  138        0.000   0.000   0.000   0.000
  139       -0.000  -0.000   0.000  -0.000
  140        0.000   0.000   0.000   0.000
  141       -0.000  -0.000   0.000  -0.000
  142       -0.000   0.000   0.000   0.000
  143       -0.000   0.002   0.000   0.002
  144        0.000   0.001   0.000   0.002
  145       -0.000  -0.000   0.000  -0.000
  146        0.000   0.000   0.000   0.000
  147       -0.000  -0.000   0.000  -0.000
  148        0.000   0.000   0.000   0.000
  149        0.000   0.002   0.000   0.002
  150        0.004   0.017   0.000   0.021
  151       -0.000   0.000   0.000   0.000
  152        0.000   0.001   0.000   0.001
  153       -0.000  -0.000   0.000  -0.000
  154        0.000   0.001   0.000   0.001
  155       -0.000  -0.000   0.000  -0.000
  156        0.000   0.001   0.000   0.001
  157       -0.000  -0.000   0.000  -0.000
  158        0.000   0.001   0.000   0.001
  159        0.000   0.000   0.000   0.000
  160       -0.000  -0.000   0.000  -0.000
  161        0.000   0.001   0.000   0.001
  162       -0.000  -0.000   0.000  -0.000
  163        0.001   0.008   0.000   0.009
  164       -0.000  -0.000   0.000  -0.000
  165        0.000   0.002   0.000   0.002
  166       -0.000  -0.001   0.000  -0.001
  167        0.001   0.007   0.000   0.008
  168       -0.000  -0.000   0.000  -0.000
  169        0.000   0.002   0.000   0.002
  170       -0.000  -0.001   0.000  -0.001
  171        0.004   0.018   0.000   0.023
  172       -0.000  -0.000   0.000  -0.000
  173       -0.000   0.000   0.000   0.000
  174        0.001   0.003   0.000   0.004
  175        0.000   0.000   0.000   0.000
  176       -0.000  -0.000   0.000  -0.001
  177        0.001   0.008   0.000   0.009
  178       -0.000  -0.000   0.000  -0.000
  179        0.000   0.002   0.000   0.002
  180       -0.000  -0.000   0.000  -0.000
  181        0.000   0.002   0.000   0.002
  182       -0.000  -0.001   0.000  -0.001
  183        0.001   0.007   0.000   0.008
  184       -0.002  -0.009   0.000  -0.012
  185        0.042   0.285   0.000   0.327
  186       -0.000  -0.000   0.000  -0.001
  187        0.000   0.002   0.000   0.002
  188       -0.000  -0.000   0.000  -0.000
  189        0.004   0.017   0.000   0.021
  190        0.000   0.001   0.000   0.001
  191       -0.000  -0.000   0.000  -0.000
  192       -0.000   0.000   0.000   0.000
  193       -0.000  -0.000   0.000  -0.000
  194        0.000   0.002   0.000   0.002
  195       -0.000  -0.001   0.000  -0.001
  196        0.004   0.018   0.000   0.023
  197        0.001   0.003   0.000   0.004
  198        0.000   0.000   0.000   0.000
  199        0.000  -0.000   0.000  -0.000
  200        0.000   0.000   0.000   0.000
  201       -0.000   0.000   0.000   0.000
  202        0.000  -0.000   0.000  -0.000
  203       -0.000  -0.001   0.000  -0.001
  204        0.000   0.000   0.000   0.000
  205        0.000   0.000   0.000   0.000
  206        0.000   0.000   0.000   0.000
  207       -0.000  -0.000   0.000  -0.000
  208        0.000   0.000   0.000   0.000
  209       -0.000  -0.000   0.000  -0.000
  210        0.000   0.000   0.000   0.000
  211       -0.000   0.002   0.000   0.002
  212        0.000   0.001   0.000   0.002
  213        0.000   0.002   0.000   0.002
  214        0.000   0.000   0.000   0.000
  215        0.000   0.000   0.000   0.000
--------------------------------------------------
tot          0.165   1.091   0.000   1.256
 

 total amount of memory used by VASP MPI-rank0   294396. kBytes
=======================================================================

   base      :      30000. kBytes
   nonlr-proj:      16121. kBytes
   fftplans  :      15609. kBytes
   grid      :      52416. kBytes
   one-center:       1320. kBytes
   wavefun   :     178930. kBytes
 
  
  
 General timing and accounting informations for this job:
 ========================================================
  
                  Total CPU time used (sec):     1030.311
                            User time (sec):     1013.045
                          System time (sec):       17.266
                         Elapsed time (sec):     1029.552
  
                   Maximum memory used (kb):     1497700.
                   Average memory used (kb):          N/A
  
                          Minor page faults:       557498
                          Major page faults:           12
                 Voluntary context switches:        44809
