  215  215    1    2
  0.5669542E+01  0.1068224E-08  0.1068223E-08  0.1068223E-08  0.5000000E-15
  1.000000000000000E-004
  CAR 
 unknown system                          
    862      1    648
 
  0.0000000E+00  0.0000000E+00  0.0000000E+00  0.1000000E+01
    1      -14.582812    -14.572754   1.000000   1.000000
    2      -13.938598    -13.895797   1.000000   1.000000
    3      -13.447549    -13.444998   1.000000   1.000000
    4      -13.448366    -13.445447   1.000000   1.000000
    5      -13.352108    -13.348553   1.000000   1.000000
    6      -13.401932    -13.393355   1.000000   1.000000
    7      -13.320812    -13.307034   1.000000   1.000000
    8      -12.952994    -12.910593   1.000000   1.000000
    9      -12.380564    -12.376968   1.000000   1.000000
   10      -12.375172    -12.372039   1.000000   1.000000
   11      -12.338241    -12.336918   1.000000   1.000000
   12      -12.348358    -12.345871   1.000000   1.000000
   13      -12.307711    -12.304090   1.000000   1.000000
   14      -12.269831    -12.272277   1.000000   1.000000
   15      -12.297103    -12.286165   1.000000   1.000000
   16      -12.315848    -12.311005   1.000000   1.000000
   17      -12.206409    -12.188485   1.000000   1.000000
   18      -12.235792    -12.216460   1.000000   1.000000
   19      -12.063724    -12.036821   1.000000   1.000000
   20      -11.606188    -11.580016   1.000000   1.000000
   21      -11.236514    -11.232567   1.000000   1.000000
   22      -11.235616    -11.226107   1.000000   1.000000
   23      -11.251509    -11.248532   1.000000   1.000000
   24      -11.194847    -11.185436   1.000000   1.000000
   25      -11.192782    -11.181699   1.000000   1.000000
   26      -11.191862    -11.168345   1.000000   1.000000
   27      -11.021351    -10.992180   1.000000   1.000000
   28      -10.454466    -10.415946   1.000000   1.000000
   29      -10.159868    -10.153301   1.000000   1.000000
   30      -10.161962    -10.155190   1.000000   1.000000
   31      -10.115801    -10.112189   1.000000   1.000000
   32      -10.135487    -10.120052   1.000000   1.000000
   33      -10.072926    -10.062656   1.000000   1.000000
   34       -9.828929     -9.790172   1.000000   1.000000
   35       -9.252467     -9.241184   1.000000   1.000000
   36       -9.243485     -9.227523   1.000000   1.000000
   37       -9.176409     -9.182571   1.000000   1.000000
   38       -9.199562     -9.198052   1.000000   1.000000
   39       -9.170592     -9.169834   1.000000   1.000000
   40       -9.136554     -9.134241   1.000000   1.000000
   41       -9.146288     -9.142891   1.000000   1.000000
   42       -9.168877     -9.164089   1.000000   1.000000
   43       -9.167419     -9.164869   1.000000   1.000000
   44       -9.145449     -9.152979   1.000000   1.000000
   45       -9.160931     -9.152995   1.000000   1.000000
   46       -9.114735     -9.112315   1.000000   1.000000
   47       -9.121509     -9.103129   1.000000   1.000000
   48       -9.110843     -9.116677   1.000000   1.000000
   49       -9.094665     -9.094806   1.000000   1.000000
   50       -9.062766     -9.061729   1.000000   1.000000
   51       -9.056531     -9.044136   1.000000   1.000000
   52       -9.059130     -9.045689   1.000000   1.000000
   53       -9.069435     -9.045655   1.000000   1.000000
   54       -9.078731     -9.072775   1.000000   1.000000
   55       -8.956813     -8.929486   1.000000   1.000000
   56       -8.990956     -8.959861   1.000000   1.000000
   57       -8.812215     -8.795845   1.000000   1.000000
   58       -8.639356     -8.625445   1.000000   1.000000
   59       -8.396401     -8.390432   1.000000   1.000000
   60       -8.417407     -8.413173   1.000000   1.000000
   61       -8.321087     -8.326799   1.000000   1.000000
   62       -8.323341     -8.316910   1.000000   1.000000
   63       -8.329318     -8.318342   1.000000   1.000000
   64       -8.297857     -8.297179   1.000000   1.000000
   65       -8.309129     -8.298056   1.000000   1.000000
   66       -8.307352     -8.302400   1.000000   1.000000
   67       -8.319518     -8.312884   1.000000   1.000000
   68       -8.251253     -8.263539   1.000000   1.000000
   69       -8.276475     -8.263233   1.000000   1.000000
   70       -8.252946     -8.235342   1.000000   1.000000
   71       -8.269147     -8.260441   1.000000   1.000000
   72       -8.259978     -8.252046   1.000000   1.000000
   73       -8.215638     -8.208945   1.000000   1.000000
   74       -8.231193     -8.223938   1.000000   1.000000
   75       -8.175642     -8.162404   1.000000   1.000000
   76       -8.171188     -8.164265   1.000000   1.000000
   77       -8.175218     -8.153850   1.000000   1.000000
   78       -8.129843     -8.116873   1.000000   1.000000
   79       -7.967041     -7.882948   1.000000   1.000000
   80       -7.998081     -7.922351   1.000000   1.000000
   81       -7.309100     -7.230100   1.000000   1.000000
   82       -6.692845     -6.671617   1.000000   1.000000
   83       -6.516007     -6.509775   1.000000   1.000000
   84       -6.515938     -6.509578   1.000000   1.000000
   85       -6.437793     -6.431763   1.000000   1.000000
   86       -6.440212     -6.424993   1.000000   1.000000
   87       -6.430558     -6.424456   1.000000   1.000000
   88       -6.431271     -6.414139   1.000000   1.000000
   89       -6.421540     -6.418999   1.000000   1.000000
   90       -6.408565     -6.403242   1.000000   1.000000
   91       -6.356778     -6.314625   1.000000   1.000000
   92       -6.356058     -6.317506   1.000000   1.000000
   93       -5.979576     -5.904410   1.000000   1.000000
   94       -5.122842     -5.096275   1.000000   1.000000
   95       -5.060030     -5.056031   1.000000   1.000000
   96       -5.052025     -5.045276   1.000000   1.000000
   97       -5.012842     -5.004348   1.000000   1.000000
   98       -5.019271     -5.011332   1.000000   1.000000
   99       -4.972090     -4.962642   1.000000   1.000000
  100       -4.787593     -4.746227   1.000000   1.000000
  101       -4.652675     -4.644055   1.000000   1.000000
  102       -4.615763     -4.605896   1.000000   1.000000
  103       -4.499043     -4.499061   1.000000   1.000000
  104       -4.534370     -4.530602   1.000000   1.000000
  105       -4.495089     -4.493756   1.000000   1.000000
  106       -4.495694     -4.491987   1.000000   1.000000
  107       -4.472686     -4.470851   1.000000   1.000000
  108       -4.526116     -4.522850   1.000000   1.000000
  109       -4.462251     -4.459834   1.000000   1.000000
  110       -4.479118     -4.469016   1.000000   1.000000
  111       -4.514360     -4.503547   1.000000   1.000000
  112       -4.413400     -4.415936   1.000000   1.000000
  113       -4.442950     -4.445613   1.000000   1.000000
  114       -4.413043     -4.401989   1.000000   1.000000
  115       -4.389029     -4.377077   1.000000   1.000000
  116       -4.357490     -4.345927   1.000000   1.000000
  117       -4.357618     -4.340486   1.000000   1.000000
  118       -4.316275     -4.310117   1.000000   1.000000
  119       -4.331937     -4.309660   1.000000   1.000000
  120       -4.282573     -4.281813   1.000000   1.000000
  121       -4.259819     -4.242674   1.000000   1.000000
  122       -4.335142     -4.303490   1.000000   1.000000
  123       -4.245680     -4.241643   1.000000   1.000000
  124       -4.224664     -4.218331   1.000000   1.000000
  125       -4.231004     -4.226152   1.000000   1.000000
  126       -4.192191     -4.183299   1.000000   1.000000
  127       -4.178217     -4.180154   1.000000   1.000000
  128       -4.163235     -4.158190   1.000000   1.000000
  129       -4.153550     -4.147249   1.000000   1.000000
  130       -4.153803     -4.153197   1.000000   1.000000
  131       -4.138141     -4.129897   1.000000   1.000000
  132       -4.150797     -4.143168   1.000000   1.000000
  133       -4.184851     -4.161441   1.000000   1.000000
  134       -4.116569     -4.113879   1.000000   1.000000
  135       -4.122876     -4.116064   1.000000   1.000000
  136       -4.092104     -4.083079   1.000000   1.000000
  137       -4.100031     -4.086018   1.000000   1.000000
  138       -4.068976     -4.061368   1.000000   1.000000
  139       -4.051624     -4.074079   1.000000   1.000000
  140       -4.089921     -4.055060   1.000000   1.000000
  141       -4.086957     -4.051511   1.000000   1.000000
  142       -4.055014     -4.050594   1.000000   1.000000
  143       -4.054166     -4.007450   1.000000   1.000000
  144       -3.860243     -3.831561   1.000000   1.000000
  145       -3.684282     -3.634979   1.000000   1.000000
  146       -3.741582     -3.671508   1.000000   1.000000
  147       -3.326524     -3.294763   1.000000   1.000000
  148       -3.067171     -3.050592   1.000000   1.000000
  149       -3.059638     -3.060189   1.000000   1.000000
  150       -3.071359     -3.036757   1.000000   1.000000
  151       -2.989502     -2.984431   1.000000   1.000000
  152       -2.994311     -2.990291   1.000000   1.000000
  153       -2.995323     -2.989216   1.000000   1.000000
  154       -2.972125     -2.962695   1.000000   1.000000
  155       -2.957887     -2.950318   1.000000   1.000000
  156       -2.956642     -2.948289   1.000000   1.000000
  157       -2.741298     -2.667580   1.000000   1.000000
  158       -2.861673     -2.769335   1.000000   1.000000
  159       -1.791004     -1.678078   1.000000   1.000000
  160       -1.314780     -1.296772   1.000000   1.000000
  161       -1.363994     -1.352085   1.000000   1.000000
  162       -1.362880     -1.351831   1.000000   1.000000
  163       -1.235640     -1.218809   1.000000   1.000000
  164       -1.196679     -1.188696   1.000000   1.000000
  165       -1.203967     -1.197566   1.000000   1.000000
  166       -1.202532     -1.197896   1.000000   1.000000
  167       -1.182499     -1.182010   1.000000   1.000000
  168       -1.186345     -1.189891   1.000000   1.000000
  169       -1.195340     -1.171902   1.000000   1.000000
  170       -1.156504     -1.154325   1.000000   1.000000
  171       -1.159707     -1.157169   1.000000   1.000000
  172       -1.144273     -1.140227   1.000000   1.000000
  173       -1.139200     -1.136070   1.000000   1.000000
  174       -1.109833     -1.099308   1.000000   1.000000
  175       -1.123851     -1.114992   1.000000   1.000000
  176       -1.034353     -1.016480   1.000000   1.000000
  177       -1.015352     -0.991503   1.000000   1.000000
  178       -1.018272     -1.000847   1.000000   1.000000
  179       -1.003573     -0.974145   1.000000   1.000000
  180       -0.713894     -0.701877   1.000000   1.000000
  181       -0.723483     -0.707186   1.000000   1.000000
  182       -0.663869     -0.623039   1.000000   1.000000
  183       -0.559591     -0.555082   1.000000   1.000000
  184       -0.545297     -0.545725   1.000000   1.000000
  185       -0.570054     -0.570224   1.000000   1.000000
  186       -0.540568     -0.541254   1.000000   1.000000
  187       -0.558328     -0.542067   1.000000   1.000000
  188       -0.530956     -0.532670   1.000000   1.000000
  189       -0.555498     -0.540345   1.000000   1.000000
  190       -0.546084     -0.538375   1.000000   1.000000
  191       -0.512315     -0.509940   1.000000   1.000000
  192       -0.541268     -0.515573   1.000000   1.000000
  193       -0.522217     -0.482968   1.000000   1.000000
  194       -0.489009     -0.511324   1.000000   1.000000
  195       -0.499225     -0.490180   1.000000   1.000000
  196       -0.535057     -0.524739   1.000000   1.000000
  197       -0.502779     -0.486300   1.000000   1.000000
  198       -0.446738     -0.435911   1.000000   1.000000
  199       -0.469953     -0.453895   1.000000   1.000000
  200       -0.444676     -0.435310   1.000000   1.000000
  201       -0.148324     -0.085246   1.000000   1.000000
  202       -0.305103     -0.201963   1.000000   1.000000
  203        0.394857      0.343359   1.000000   1.000000
  204        0.329312      0.318080   1.000000   1.000000
  205        0.305789      0.424218   1.000000   1.000000
  206        0.493833      0.508763   1.000000   1.000000
  207        0.507071      0.484687   1.000000   1.000000
  208        0.482990      0.500338   1.000000   1.000000
  209        0.512271      0.514302   1.000000   1.000000
  210        0.507168      0.511743   1.000000   1.000000
  211        0.484726      0.488455   1.000000   1.000000
  212        0.536640      0.538946   1.000000   1.000000
  213        0.532501      0.534495   1.000000   1.000000
  214        0.502246      0.503316   1.000000   1.000000
  215        0.538978      0.547259   1.000000   1.000000
  216        0.565131      0.569903   1.000000   1.000000
  217        0.628125      0.637567   1.000000   1.000000
  218        0.585616      0.592360   1.000000   1.000000
  219        0.625391      0.624986   1.000000   1.000000
  220        0.635700      0.654211   1.000000   1.000000
  221        0.644419      0.659468   1.000000   1.000000
  222        0.661603      0.678830   1.000000   1.000000
  223        0.675050      0.692164   1.000000   1.000000
  224        0.669077      0.690445   1.000000   1.000000
  225        0.736724      0.752424   1.000000   1.000000
  226        0.739500      0.746115   1.000000   1.000000
  227        0.783441      0.827050   1.000000   1.000000
  228        0.927912      0.938571   1.000000   1.000000
  229        0.903178      0.918262   1.000000   1.000000
  230        0.999424      1.017194   1.000000   1.000000
  231        1.055745      1.061431   1.000000   1.000000
  232        1.056949      1.060458   1.000000   1.000000
  233        1.098337      1.100522   1.000000   1.000000
  234        1.115886      1.119136   1.000000   1.000000
  235        1.087798      1.094811   1.000000   1.000000
  236        1.097908      1.108099   1.000000   1.000000
  237        1.115294      1.126564   1.000000   1.000000
  238        1.108883      1.114100   1.000000   1.000000
  239        1.101079      1.110733   1.000000   1.000000
  240        1.107112      1.122929   1.000000   1.000000
  241        1.122379      1.127837   1.000000   1.000000
  242        1.109289      1.115576   1.000000   1.000000
  243        1.139331      1.148825   1.000000   1.000000
  244        1.115563      1.125393   1.000000   1.000000
  245        1.095624      1.114327   1.000000   1.000000
  246        1.104061      1.140447   1.000000   1.000000
  247        1.170603      1.169598   1.000000   1.000000
  248        1.152985      1.157179   1.000000   1.000000
  249        1.172585      1.174937   1.000000   1.000000
  250        1.160243      1.177449   1.000000   1.000000
  251        1.182271      1.206298   1.000000   1.000000
  252        1.217584      1.244879   1.000000   1.000000
  253        1.227165      1.260407   1.000000   1.000000
  254        1.511141      1.572731   1.000000   1.000000
  255        1.583615      1.654206   1.000000   1.000000
  256        1.604060      1.656305   1.000000   1.000000
  257        2.125258      2.139287   1.000000   1.000000
  258        2.127142      2.138020   1.000000   1.000000
  259        2.223682      2.232535   1.000000   1.000000
  260        2.199042      2.229667   1.000000   1.000000
  261        2.257700      2.280389   1.000000   1.000000
  262        2.263035      2.279733   1.000000   1.000000
  263        2.315928      2.429922   1.000000   1.000000
  264        2.673118      2.692021   1.000000   1.000000
  265        2.639837      2.668453   1.000000   1.000000
  266        2.774504      2.799776   1.000000   1.000000
  267        2.795765      2.793782   1.000000   1.000000
  268        2.788008      2.791539   1.000000   1.000000
  269        2.824212      2.828330   1.000000   1.000000
  270        2.830576      2.837755   1.000000   1.000000
  271        2.825294      2.834643   1.000000   1.000000
  272        2.836200      2.871347   1.000000   1.000000
  273        2.910810      2.929658   1.000000   1.000000
  274        2.920579      2.945460   1.000000   1.000000
  275        3.048954      3.061735   1.000000   1.000000
  276        3.047683      3.060598   1.000000   1.000000
  277        3.190114      3.233310   1.000000   1.000000
  278        3.275353      3.286392   1.000000   1.000000
  279        3.274459      3.291325   1.000000   1.000000
  280        3.282898      3.282535   1.000000   1.000000
  281        3.278393      3.303339   1.000000   1.000000
  282        3.305065      3.317339   1.000000   1.000000
  283        3.300263      3.308853   1.000000   1.000000
  284        3.332147      3.341179   1.000000   1.000000
  285        3.346362      3.360944   1.000000   1.000000
  286        3.357492      3.369967   1.000000   1.000000
  287        3.367428      3.393787   1.000000   1.000000
  288        3.431397      3.445331   1.000000   1.000000
  289        3.479828      3.498360   1.000000   1.000000
  290        3.505211      3.510417   1.000000   1.000000
  291        3.530173      3.534000   1.000000   1.000000
  292        3.558153      3.559777   1.000000   1.000000
  293        3.537444      3.541004   1.000000   1.000000
  294        3.561475      3.564494   1.000000   1.000000
  295        3.559560      3.566510   1.000000   1.000000
  296        3.569169      3.573811   1.000000   1.000000
  297        3.571766      3.575377   1.000000   1.000000
  298        3.570892      3.576737   1.000000   1.000000
  299        3.605972      3.586346   1.000000   1.000000
  300        3.584011      3.614144   1.000000   1.000000
  301        3.590711      3.593294   1.000000   1.000000
  302        3.579709      3.580896   1.000000   1.000000
  303        3.626269      3.627560   1.000000   1.000000
  304        3.631653      3.642486   1.000000   1.000000
  305        3.645548      3.636752   1.000000   1.000000
  306        3.641131      3.659705   1.000000   1.000000
  307        3.632441      3.662175   1.000000   1.000000
  308        3.653936      3.654160   1.000000   1.000000
  309        3.640897      3.655542   1.000000   1.000000
  310        3.676777      3.691871   1.000000   1.000000
  311        3.748145      3.758199   1.000000   1.000000
  312        3.700127      3.708545   1.000000   1.000000
  313        3.759427      3.772381   1.000000   1.000000
  314        3.796606      3.797168   1.000000   1.000000
  315        3.798004      3.796432   1.000000   1.000000
  316        3.792281      3.797578   1.000000   1.000000
  317        3.794013      3.798247   1.000000   1.000000
  318        3.814368      3.814364   1.000000   1.000000
  319        3.811725      3.809091   1.000000   1.000000
  320        3.806482      3.804898   1.000000   1.000000
  321        3.802878      3.807218   1.000000   1.000000
  322        3.799560      3.834680   1.000000   1.000000
  323        3.821535      3.829812   1.000000   1.000000
  324        3.828025      3.832790   1.000000   1.000000
  325        3.828554      3.836737   1.000000   1.000000
  326        3.834304      3.838844   1.000000   1.000000
  327        3.852853      3.861492   1.000000   1.000000
  328        3.858297      3.879178   1.000000   1.000000
  329        3.875360      3.864356   1.000000   1.000000
  330        3.868200      3.865177   1.000000   1.000000
  331        3.880008      3.889988   1.000000   1.000000
  332        3.848499      3.853215   1.000000   1.000000
  333        3.872045      3.873921   1.000000   1.000000
  334        3.872030      3.875924   1.000000   1.000000
  335        3.885017      3.877337   1.000000   1.000000
  336        3.865603      3.893688   1.000000   1.000000
  337        3.891231      3.918542   1.000000   1.000000
  338        3.892339      3.885482   1.000000   1.000000
  339        3.867472      3.905232   1.000000   1.000000
  340        3.904841      3.922731   1.000000   1.000000
  341        3.919688      3.935098   1.000000   1.000000
  342        3.902443      3.904101   1.000000   1.000000
  343        3.888471      3.915217   1.000000   1.000000
  344        3.948722      3.957626   1.000000   1.000000
  345        3.929093      3.935515   1.000000   1.000000
  346        3.965310      4.008326   1.000000   1.000000
  347        3.986650      3.990039   1.000000   1.000000
  348        3.976094      4.012592   1.000000   1.000000
  349        4.016215      4.031937   1.000000   1.000000
  350        4.042293      4.037152   1.000000   1.000000
  351        4.028974      4.059803   1.000000   1.000000
  352        4.029848      4.076630   1.000000   1.000000
  353        4.041098      4.066341   1.000000   1.000000
  354        4.167875      4.226320   1.000000   1.000000
  355        4.165875      4.206063   1.000000   1.000000
  356        4.415257      4.451383   1.000000   1.000000
  357        4.434802      4.467886   1.000000   1.000000
  358        4.444586      4.464716   1.000000   1.000000
  359        4.608117      4.617523   1.000000   1.000000
  360        4.610770      4.618211   1.000000   1.000000
  361        4.694781      4.701638   1.000000   1.000000
  362        4.697054      4.702079   1.000000   1.000000
  363        4.701167      4.703874   1.000000   1.000000
  364        4.708231      4.709949   1.000000   1.000000
  365        4.745473      4.737958   1.000000   1.000000
  366        4.753405      4.745620   1.000000   1.000000
  367        4.732783      4.756782   1.000000   1.000000
  368        4.740410      4.765598   1.000000   1.000000
  369        4.792700      4.799974   1.000000   1.000000
  370        4.773326      4.782599   1.000000   1.000000
  371        4.808079      4.782746   1.000000   1.000000
  372        4.771934      4.824089   1.000000   1.000000
  373        4.774356      4.797938   1.000000   1.000000
  374        4.800515      4.820771   1.000000   1.000000
  375        4.801928      4.834196   1.000000   1.000000
  376        4.822844      4.834133   1.000000   1.000000
  377        4.885499      4.974315   1.000000   1.000000
  378        4.819232      4.834115   1.000000   1.000000
  379        4.967430      5.012991   1.000000   1.000000
  380        5.431679      5.556663   1.000000   1.000000
  381        5.788249      5.865206   1.000000   1.000000
  382        5.766886      5.872120   1.000000   1.000000
  383        6.010537      6.214842   1.000000   1.000000
  384        6.190935      6.209018   1.000000   1.000000
  385        6.182458      6.266751   1.000000   1.000000
  386        6.279071      6.285851   1.000000   1.000000
  387        6.294315      6.301169   1.000000   1.000000
  388        6.305755      6.309377   1.000000   1.000000
  389        6.313608      6.334764   1.000000   1.000000
  390        6.331326      6.354497   1.000000   1.000000
  391        6.335967      6.362202   1.000000   1.000000
  392        6.349352      6.361558   1.000000   1.000000
  393        6.386446      6.393697   1.000000   1.000000
  394        6.376930      6.382574   1.000000   1.000000
  395        6.413097      6.425792   1.000000   1.000000
  396        6.459508      6.463428   1.000000   1.000000
  397        6.468304      6.473657   1.000000   1.000000
  398        6.528767      6.541811   1.000000   1.000000
  399        6.550058      6.554798   1.000000   1.000000
  400        6.541402      6.548430   1.000000   1.000000
  401        6.538686      6.547560   1.000000   1.000000
  402        6.557722      6.569598   1.000000   1.000000
  403        6.563051      6.581567   1.000000   1.000000
  404        6.553248      6.565846   1.000000   1.000000
  405        6.578262      6.584720   1.000000   1.000000
  406        6.588716      6.603654   1.000000   1.000000
  407        6.590023      6.609341   1.000000   1.000000
  408        6.608333      6.635655   1.000000   1.000000
  409        6.646583      6.678431   1.000000   1.000000
  410        6.605765      6.624576   1.000000   1.000000
  411        6.634218      6.669185   1.000000   1.000000
  412        6.646905      6.638431   1.000000   1.000000
  413        6.624961      6.661083   1.000000   1.000000
  414        7.161038      7.266965   1.000000   1.000000
  415        7.290725      7.345553   1.000000   1.000000
  416        7.298863      7.330093   1.000000   1.000000
  417        7.292007      7.553409   1.000000   1.000000
  418        7.548806      7.524205   1.000000   1.000000
  419        7.502907      7.557216   1.000000   1.000000
  420        7.553597      7.593153   1.000000   1.000000
  421        7.596552      7.589291   1.000000   1.000000
  422        7.579698      7.599823   1.000000   1.000000
  423        7.579006      7.663620   1.000000   1.000000
  424        7.647013      7.709136   1.000000   1.000000
  425        7.680770      7.675301   1.000000   1.000000
  426        7.647187      7.754715   1.000000   1.000000
  427        8.634275      8.969071   1.000000   1.000000
  428        8.946509      8.990309   1.000000   1.000000
  429        8.907306      9.017449   1.000000   1.000000
  430        9.200035     11.133684   1.000000   0.000000
  431       11.565737     13.050899   1.000000   1.000000
  432       10.633023     13.457264   1.000000   0.000000
  433       14.438027     14.442311   0.000000   0.000000
  434       14.443211     14.446909   0.000000   0.000000
  435       14.445878     14.464950   0.000000   0.000000
  436       14.497534     14.514740   0.000000   0.000000
  437       14.501780     14.512996   0.000000   0.000000
  438       14.520715     14.531551   0.000000   0.000000
  439       14.988887     15.000178   0.000000   0.000000
  440       15.069261     15.075852   0.000000   0.000000
  441       15.070806     15.078548   0.000000   0.000000
  442       15.096003     15.103622   0.000000   0.000000
  443       15.092505     15.096831   0.000000   0.000000
  444       15.169799     15.186310   0.000000   0.000000
  445       15.349898     15.355802   0.000000   0.000000
  446       15.349206     15.353426   0.000000   0.000000
  447       15.388255     15.422005   0.000000   0.000000
  448       15.456212     15.484833   0.000000   0.000000
  449       15.457488     15.472289   0.000000   0.000000
  450       15.483884     15.494902   0.000000   0.000000
  451       16.184751     16.209640   0.000000   0.000000
  452       16.171408     16.188960   0.000000   0.000000
  453       16.212897     16.227139   0.000000   0.000000
  454       16.604679     16.623643   0.000000   0.000000
  455       16.722006     16.724523   0.000000   0.000000
  456       16.717038     16.719503   0.000000   0.000000
  457       16.743671     16.744772   0.000000   0.000000
  458       16.778214     16.785950   0.000000   0.000000
  459       16.773708     16.786850   0.000000   0.000000
  460       16.790055     16.795759   0.000000   0.000000
  461       16.789377     16.794400   0.000000   0.000000
  462       16.802723     16.809074   0.000000   0.000000
  463       16.812037     16.817801   0.000000   0.000000
  464       16.813125     16.815656   0.000000   0.000000
  465       16.850442     16.860638   0.000000   0.000000
  466       17.304434     17.324194   0.000000   0.000000
  467       17.532348     17.533277   0.000000   0.000000
  468       17.524768     17.528205   0.000000   0.000000
  469       17.572862     17.575502   0.000000   0.000000
  470       17.583521     17.586064   0.000000   0.000000
  471       17.588354     17.590538   0.000000   0.000000
  472       17.584200     17.587695   0.000000   0.000000
  473       17.598495     17.605633   0.000000   0.000000
  474       17.582527     17.592040   0.000000   0.000000
  475       17.607332     17.605875   0.000000   0.000000
  476       17.602210     17.609459   0.000000   0.000000
  477       17.625410     17.628290   0.000000   0.000000
  478       17.611273     17.616956   0.000000   0.000000
  479       17.626142     17.632151   0.000000   0.000000
  480       17.640998     17.644788   0.000000   0.000000
  481       17.649556     17.654922   0.000000   0.000000
  482       17.664399     17.674591   0.000000   0.000000
  483       17.657112     17.666491   0.000000   0.000000
  484       17.698156     17.705495   0.000000   0.000000
  485       17.721987     17.725788   0.000000   0.000000
  486       17.728366     17.740387   0.000000   0.000000
  487       17.747462     17.753281   0.000000   0.000000
  488       17.747475     17.747776   0.000000   0.000000
  489       17.742617     17.762732   0.000000   0.000000
  490       18.010849     18.027172   0.000000   0.000000
  491       18.108345     18.114056   0.000000   0.000000
  492       18.093127     18.101677   0.000000   0.000000
  493       18.174735     18.184209   0.000000   0.000000
  494       18.173197     18.183839   0.000000   0.000000
  495       18.181349     18.188464   0.000000   0.000000
  496       18.212481     18.224342   0.000000   0.000000
  497       18.215759     18.215384   0.000000   0.000000
  498       18.222373     18.222852   0.000000   0.000000
  499       18.237821     18.238595   0.000000   0.000000
  500       18.232527     18.238482   0.000000   0.000000
  501       18.243306     18.246660   0.000000   0.000000
  502       18.273420     18.275201   0.000000   0.000000
  503       18.270095     18.255446   0.000000   0.000000
  504       18.251381     18.291627   0.000000   0.000000
  505       18.289477     18.276038   0.000000   0.000000
  506       18.274139     18.280553   0.000000   0.000000
  507       18.283760     18.289036   0.000000   0.000000
  508       18.296152     18.294835   0.000000   0.000000
  509       18.294494     18.299381   0.000000   0.000000
  510       18.307647     18.309690   0.000000   0.000000
  511       18.288310     18.293892   0.000000   0.000000
  512       18.299656     18.313105   0.000000   0.000000